 Entering Gaussian System, Link 0=g16
 Input=npII_MP2-jun-cc-pVQZ.gjf
 Output=npII_MP2-jun-cc-pVQZ.log
 Initial command:
 /home/share/software/programs/Gaussian/g16/l1.exe "/home/qr/scratch/Gau-327422.inp" -scrdir="/home/qr/scratch/"
 Entering Link 1 = /home/share/software/programs/Gaussian/g16/l1.exe PID=    327423.
  
 Copyright (c) 1988-2019, Gaussian, Inc.  All Rights Reserved.
  
 This is part of the Gaussian(R) 16 program.  It is based on
 the Gaussian(R) 09 system (copyright 2009, Gaussian, Inc.),
 the Gaussian(R) 03 system (copyright 2003, Gaussian, Inc.),
 the Gaussian(R) 98 system (copyright 1998, Gaussian, Inc.),
 the Gaussian(R) 94 system (copyright 1995, Gaussian, Inc.),
 the Gaussian 92(TM) system (copyright 1992, Gaussian, Inc.),
 the Gaussian 90(TM) system (copyright 1990, Gaussian, Inc.),
 the Gaussian 88(TM) system (copyright 1988, Gaussian, Inc.),
 the Gaussian 86(TM) system (copyright 1986, Carnegie Mellon
 University), and the Gaussian 82(TM) system (copyright 1983,
 Carnegie Mellon University). Gaussian is a federally registered
 trademark of Gaussian, Inc.
  
 This software contains proprietary and confidential information,
 including trade secrets, belonging to Gaussian, Inc.
  
 This software is provided under written license and may be
 used, copied, transmitted, or stored only in accord with that
 written license.
  
 The following legend is applicable only to US Government
 contracts under FAR:
  
                    RESTRICTED RIGHTS LEGEND
  
 Use, reproduction and disclosure by the US Government is
 subject to restrictions as set forth in subparagraphs (a)
 and (c) of the Commercial Computer Software - Restricted
 Rights clause in FAR 52.227-19.
  
 Gaussian, Inc.
 340 Quinnipiac St., Bldg. 40, Wallingford CT 06492
  
  
 ---------------------------------------------------------------
 Warning -- This program may not be used in any manner that
 competes with the business of Gaussian, Inc. or will provide
 assistance to any competitor of Gaussian, Inc.  The licensee
 of this program is prohibited from giving any competitor of
 Gaussian, Inc. access to this program.  By using this program,
 the user acknowledges that Gaussian, Inc. is engaged in the
 business of creating and licensing software in the field of
 computational chemistry and represents and warrants to the
 licensee that it is not a competitor of Gaussian, Inc. and that
 it will not use this program in any manner prohibited above.
 ---------------------------------------------------------------
  

 Cite this work as:
 Gaussian 16, Revision C.01,
 M. J. Frisch, G. W. Trucks, H. B. Schlegel, G. E. Scuseria, 
 M. A. Robb, J. R. Cheeseman, G. Scalmani, V. Barone, 
 G. A. Petersson, H. Nakatsuji, X. Li, M. Caricato, A. V. Marenich, 
 J. Bloino, B. G. Janesko, R. Gomperts, B. Mennucci, H. P. Hratchian, 
 J. V. Ortiz, A. F. Izmaylov, J. L. Sonnenberg, D. Williams-Young, 
 F. Ding, F. Lipparini, F. Egidi, J. Goings, B. Peng, A. Petrone, 
 T. Henderson, D. Ranasinghe, V. G. Zakrzewski, J. Gao, N. Rega, 
 G. Zheng, W. Liang, M. Hada, M. Ehara, K. Toyota, R. Fukuda, 
 J. Hasegawa, M. Ishida, T. Nakajima, Y. Honda, O. Kitao, H. Nakai, 
 T. Vreven, K. Throssell, J. A. Montgomery, Jr., J. E. Peralta, 
 F. Ogliaro, M. J. Bearpark, J. J. Heyd, E. N. Brothers, K. N. Kudin, 
 V. N. Staroverov, T. A. Keith, R. Kobayashi, J. Normand, 
 K. Raghavachari, A. P. Rendell, J. C. Burant, S. S. Iyengar, 
 J. Tomasi, M. Cossi, J. M. Millam, M. Klene, C. Adamo, R. Cammi, 
 J. W. Ochterski, R. L. Martin, K. Morokuma, O. Farkas, 
 J. B. Foresman, and D. J. Fox, Gaussian, Inc., Wallingford CT, 2019.
 
 ******************************************
 Gaussian 16:  ES64L-G16RevC.01  3-Jul-2019
                27-Jan-2021 
 ******************************************
 %nprocshared=64
 Will use up to   64 processors via shared memory.
 %mem=60GB
 %chk=npII_MP2-jun-cc-pVQZ.chk
 ------------------
 #p MP2/jun-cc-pvqz
 ------------------
 1/38=1,172=1/1;
 2/12=2,17=6,18=5,40=1/2;
 3/5=16,6=2,7=60,11=9,25=1,30=1/1,2,3;
 4//1;
 5/5=2,38=5/2;
 8/10=1/1;
 9/16=-3/6;
 6/7=2,8=2,9=2,10=2/1;
 99/5=1,9=1/99;
 Leave Link    1 at Wed Jan 27 21:31:57 2021, MaxMem=  8053063680 cpu:               4.9 elap:               0.1
 (Enter /home/share/software/programs/Gaussian/g16/l101.exe)
 --
 SP
 --
 Symbolic Z-matrix:
 Charge =  0 Multiplicity = 1
 C
 H                    1    B1
 H                    1    B2       2    A1
 C                    1    B3       3    A2       2    D1       0
 O                    4    B4       1    A3       3    D2       0
 N                    4    B5       1    A4       5    D3       0
 H                    6    B6       4    A5       1    D4       0
 C                    6    B7       4    A6       1    D5       0
 H                    8    B8       6    A7       4    D6       0
 H                    8    B9       6    A8       4    D7       0
 C                    8    B10      6    A9       4    D8       0
 O                    11   B11      8    A10      6    D9       0
 O                    11   B12      8    A11      6    D10      0
 H                    13   B13      11   A12      8    D11      0
 N                    1    B14      4    A13      5    D12      0
 H                    15   B15      1    A14      4    D13      0
 H                    15   B16      1    A15      4    D14      0
       Variables:
  B1                    1.09325                  
  B2                    1.09226                  
  B3                    1.51842                  
  B4                    1.23622                  
  B5                    1.34017                  
  B6                    1.01064                  
  B7                    1.45291                  
  B8                    1.09419                  
  B9                    1.0863                   
  B10                   1.53                     
  B11                   1.20547                  
  B12                   1.33555                  
  B13                   0.98635                  
  B14                   1.46094                  
  B15                   1.01069                  
  B16                   1.01228                  
  A1                  106.82669                  
  A2                  106.00689                  
  A3                  121.06246                  
  A4                  115.71847                  
  A5                  115.88441                  
  A6                  122.54674                  
  A7                  108.93104                  
  A8                  108.78837                  
  A9                  113.71276                  
  A10                 122.27418                  
  A11                 115.23589                  
  A12                 109.7423                   
  A13                 112.53744                  
  A14                 111.16001                  
  A15                 111.04356                  
  D1                  113.61777                  
  D2                  -71.55754                  
  D3                  179.51962                  
  D4                    1.27726                  
  D5                 -173.06573                  
  D6                   45.70826                  
  D7                  164.7488                   
  D8                  -75.18113                  
  D9                 -123.46052                  
  D10                  57.76538                  
  D11                  -0.34158                  
  D12                 168.75656                  
  D13                 149.07798                  
  D14                 -91.68667                  
 
 ITRead=  0  0  0  0  0  0  0  0  0  0  0  0  0  0  0  0  0
 MicOpt= -1 -1 -1 -1 -1 -1 -1 -1 -1 -1 -1 -1 -1 -1 -1 -1 -1
 NAtoms=     17 NQM=       17 NQMF=       0 NMMI=      0 NMMIF=      0
                NMic=       0 NMicF=      0.
                    Isotopes and Nuclear Properties:
 (Nuclear quadrupole moments (NQMom) in fm**2, nuclear magnetic moments (NMagM)
  in nuclear magnetons)

  Atom         1           2           3           4           5           6           7           8           9          10
 IAtWgt=          12           1           1          12          16          14           1          12           1           1
 AtmWgt=  12.0000000   1.0078250   1.0078250  12.0000000  15.9949146  14.0030740   1.0078250  12.0000000   1.0078250   1.0078250
 NucSpn=           0           1           1           0           0           2           1           0           1           1
 AtZEff=  -0.0000000  -0.0000000  -0.0000000  -0.0000000  -0.0000000  -0.0000000  -0.0000000  -0.0000000  -0.0000000  -0.0000000
 NQMom=    0.0000000   0.0000000   0.0000000   0.0000000   0.0000000   2.0440000   0.0000000   0.0000000   0.0000000   0.0000000
 NMagM=    0.0000000   2.7928460   2.7928460   0.0000000   0.0000000   0.4037610   2.7928460   0.0000000   2.7928460   2.7928460
 AtZNuc=   6.0000000   1.0000000   1.0000000   6.0000000   8.0000000   7.0000000   1.0000000   6.0000000   1.0000000   1.0000000

  Atom        11          12          13          14          15          16          17
 IAtWgt=          12          16          16           1          14           1           1
 AtmWgt=  12.0000000  15.9949146  15.9949146   1.0078250  14.0030740   1.0078250   1.0078250
 NucSpn=           0           0           0           1           2           1           1
 AtZEff=  -0.0000000  -0.0000000  -0.0000000  -0.0000000  -0.0000000  -0.0000000  -0.0000000
 NQMom=    0.0000000   0.0000000   0.0000000   0.0000000   2.0440000   0.0000000   0.0000000
 NMagM=    0.0000000   0.0000000   0.0000000   2.7928460   0.4037610   2.7928460   2.7928460
 AtZNuc=   6.0000000   8.0000000   8.0000000   1.0000000   7.0000000   1.0000000   1.0000000
 Leave Link  101 at Wed Jan 27 21:31:57 2021, MaxMem=  8053063680 cpu:               9.2 elap:               0.2
 (Enter /home/share/software/programs/Gaussian/g16/l202.exe)
                          Input orientation:                          
 ---------------------------------------------------------------------
 Center     Atomic      Atomic             Coordinates (Angstroms)
 Number     Number       Type             X           Y           Z
 ---------------------------------------------------------------------
      1          6           0        0.000000    0.000000    0.000000
      2          1           0        0.000000    0.000000    1.093253
      3          1           0        1.045499    0.000000   -0.316186
      4          6           0       -0.570053    1.337298   -0.438502
      5          8           0       -0.245566    2.386165    0.129665
      6          7           0       -1.423701    1.295264   -1.470765
      7          1           0       -1.620299    0.376704   -1.843587
      8          6           0       -1.942375    2.494867   -2.105481
      9          1           0       -1.116655    3.192820   -2.273712
     10          1           0       -2.382467    2.222926   -3.060687
     11          6           0       -3.016637    3.210308   -1.283892
     12          8           0       -4.115875    3.439753   -1.722288
     13          8           0       -2.641068    3.584126   -0.057968
     14          1           0       -1.705431    3.315079    0.100405
     15          7           0       -0.694181   -1.131653   -0.609764
     16          1           0       -0.069370   -1.915137   -0.741121
     17          1           0       -1.454666   -1.450699   -0.022760
 ---------------------------------------------------------------------
                    Distance matrix (angstroms):
                    1          2          3          4          5
     1  C    0.000000
     2  H    1.093253   0.000000
     3  H    1.092265   1.754875   0.000000
     4  C    1.518424   2.111776   2.100794   0.000000
     5  O    2.402270   2.585070   2.749439   1.236215   0.000000
     6  N    2.422351   3.206060   3.017898   1.340167   2.267034
     7  H    2.483161   3.375248   3.095373   2.000005   3.133935
     8  C    3.798715   4.497675   4.284079   2.449909   2.808354
     9  H    4.075632   4.772574   4.324455   2.666407   2.680617
    10  H    4.470498   5.279466   4.921853   3.308328   3.843350
    11  C    4.588524   5.005696   5.267208   3.195093   3.218103
    12  O    5.633702   6.058019   6.359937   4.317554   4.418039
    13  O    4.452477   4.598533   5.148146   3.079308   2.684910
    14  H    3.729386   3.857977   4.327922   2.343313   1.730590
    15  N    1.460938   2.159350   2.096023   2.477995   3.622576
    16  H    2.054708   2.652827   2.256381   3.304633   4.392097
    17  H    2.054531   2.337962   2.905418   2.954371   4.025752
                    6          7          8          9         10
     6  N    0.000000
     7  H    1.010643   0.000000
     8  C    1.452906   2.158457   0.000000
     9  H    2.083199   2.892952   1.094191   0.000000
    10  H    2.075486   2.338967   1.086302   1.778287   0.000000
    11  C    2.497951   3.208166   1.530001   2.142425   2.129342
    12  O    3.451072   3.952832   2.400780   3.059471   2.505331
    13  O    2.952434   3.810244   2.422181   2.717807   3.306972
    14  H    2.574412   3.524258   2.365337   2.449088   3.412284
    15  N    2.676462   2.157581   4.116650   4.652770   4.484477
    16  H    3.559954   2.978817   4.981744   5.434783   5.277724
    17  H    3.104512   2.585004   4.488104   5.171392   4.856474
                   11         12         13         14         15
    11  C    0.000000
    12  O    1.205470   0.000000
    13  O    1.335545   2.228421   0.000000
    14  H    1.909586   3.024565   0.986349   0.000000
    15  N    4.969998   5.817512   5.131609   4.615235   0.000000
    16  H    5.937270   6.783195   6.109191   5.544368   1.010688
    17  H    5.074958   5.821250   5.172838   4.773960   1.012275
                   16         17
    16  H    0.000000
    17  H    1.628124   0.000000
 Stoichiometry    C4H8N2O3
 Framework group  C1[X(C4H8N2O3)]
 Deg. of freedom    45
 Full point group                 C1      NOp   1
 Largest Abelian subgroup         C1      NOp   1
 Largest concise Abelian subgroup C1      NOp   1
                         Standard orientation:                         
 ---------------------------------------------------------------------
 Center     Atomic      Atomic             Coordinates (Angstroms)
 Number     Number       Type             X           Y           Z
 ---------------------------------------------------------------------
      1          6           0       -2.500543    0.312408   -0.141422
      2          1           0       -2.726343    1.039434   -0.926055
      3          1           0       -3.073747    0.609693    0.739544
      4          6           0       -1.039554    0.503007    0.225721
      5          8           0       -0.553284    1.633629    0.341752
      6          7           0       -0.337142   -0.621731    0.419705
      7          1           0       -0.842252   -1.486408    0.283335
      8          6           0        1.027736   -0.614819    0.917696
      9          1           0        1.091736    0.070268    1.768468
     10          1           0        1.285916   -1.618025    1.244764
     11          6           0        2.061028   -0.183939   -0.125162
     12          8           0        2.998298   -0.878903   -0.427997
     13          8           0        1.864217    1.025791   -0.655727
     14          1           0        1.054424    1.432639   -0.266375
     15          7           0       -2.815726   -1.072333   -0.484191
     16          1           0       -3.769104   -1.301009   -0.238694
     17          1           0       -2.716411   -1.232223   -1.478813
 ---------------------------------------------------------------------
 Rotational constants (GHZ):           3.3458083           0.9214662           0.8078453
 Leave Link  202 at Wed Jan 27 21:31:57 2021, MaxMem=  8053063680 cpu:               2.6 elap:               0.1
 (Enter /home/share/software/programs/Gaussian/g16/l301.exe)
 Standard basis: Jun-CC-pVQZ (5D, 7F)
 Ernie: Thresh=  0.10000D-02 Tol=  0.10000D-05 Strict=F.
 Ernie:  27 primitive shells out of 429 were deleted.
 There are  1090 symmetry adapted cartesian basis functions of A   symmetry.
 There are   879 symmetry adapted basis functions of A   symmetry.
   879 basis functions,  1277 primitive gaussians,  1090 cartesian basis functions
    35 alpha electrons       35 beta electrons
       nuclear repulsion energy       467.8776924756 Hartrees.
 IExCor=    0 DFT=F Ex=HF Corr=None ExCW=0 ScaHFX=  1.000000
 ScaDFX=  1.000000  1.000000  1.000000  1.000000 ScalE2=  1.000000  1.000000
 IRadAn=      5 IRanWt=     -1 IRanGd=            0 ICorTp=0 IEmpDi=  4
 NAtoms=   17 NActive=   17 NUniq=   17 SFac= 1.00D+00 NAtFMM=   60 NAOKFM=F Big=F
 Integral buffers will be    131072 words long.
 Raffenetti 1 integral format.
 Two-electron integral symmetry is turned on.
 Leave Link  301 at Wed Jan 27 21:31:58 2021, MaxMem=  8053063680 cpu:               6.2 elap:               0.1
 (Enter /home/share/software/programs/Gaussian/g16/l302.exe)
 NPDir=0 NMtPBC=     1 NCelOv=     1 NCel=       1 NClECP=     1 NCelD=      1
         NCelK=      1 NCelE2=     1 NClLst=     1 CellRange=     0.0.
 One-electron integrals computed using PRISM.
 One-electron integral symmetry used in STVInt
 NBasis=   879 RedAO= T EigKep=  3.05D-06  NBF=   879
 NBsUse=   879 1.00D-06 EigRej= -1.00D+00 NBFU=   879
 Leave Link  302 at Wed Jan 27 21:31:59 2021, MaxMem=  8053063680 cpu:             111.2 elap:               1.8
 (Enter /home/share/software/programs/Gaussian/g16/l303.exe)
 DipDrv:  MaxL=1.
 Leave Link  303 at Wed Jan 27 21:32:00 2021, MaxMem=  8053063680 cpu:               9.8 elap:               0.2
 (Enter /home/share/software/programs/Gaussian/g16/l401.exe)
 ExpMin= 3.22D-02 ExpMax= 6.14D+04 ExpMxC= 5.91D+02 IAcc=3 IRadAn=         5 AccDes= 0.00D+00
 Harris functional with IExCor=  205 and IRadAn=       5 diagonalized for initial guess.
 HarFok:  IExCor=  205 AccDes= 0.00D+00 IRadAn=         5 IDoV= 1 UseB2=F ITyADJ=14
 ICtDFT=  3500011 ScaDFX=  1.000000  1.000000  1.000000  1.000000
 FoFCou: FMM=F IPFlag=           0 FMFlag=      100000 FMFlg1=           0
         NFxFlg=           0 DoJE=T BraDBF=F KetDBF=T FulRan=T
         wScrn=  0.000000 ICntrl=       500 IOpCl=  0 I1Cent=   200000004 NGrid=           0
         NMat0=    1 NMatS0=      1 NMatT0=    0 NMatD0=    1 NMtDS0=    0 NMtDT0=    0
 Petite list used in FoFCou.
 Harris En= -490.359434141890    
 JPrj=0 DoOrth=F DoCkMO=F.
 Leave Link  401 at Wed Jan 27 21:32:02 2021, MaxMem=  8053063680 cpu:             149.5 elap:               2.4
 (Enter /home/share/software/programs/Gaussian/g16/l502.exe)
 Integral symmetry usage will be decided dynamically.
 Closed shell SCF:
 Using DIIS extrapolation, IDIIS=  1040.
 NGot=  8053063680 LenX=  8050608966 LenY=  8049419776
 Requested convergence on RMS density matrix=1.00D-08 within 128 cycles.
 Requested convergence on MAX density matrix=1.00D-06.
 Requested convergence on             energy=1.00D-06.
 No special actions if energy rises.
 Fock matrices will be formed incrementally for  20 cycles.

 Cycle   1  Pass 1  IDiag  1:
 FoFJK:  IHMeth= 1 ICntrl=       0 DoSepK=F KAlg= 0 I1Cent=           0 FoldK=F
 IRaf= 910000000 NMat=       1 IRICut=       1 DoRegI=T DoRafI=F ISym2E= 0 IDoP0=0 IntGTp=1.
 FoFCou: FMM=F IPFlag=           0 FMFlag=      100000 FMFlg1=           0
         NFxFlg=           0 DoJE=F BraDBF=F KetDBF=F FulRan=T
         wScrn=  0.000000 ICntrl=         0 IOpCl=  0 I1Cent=           0 NGrid=           0
         NMat0=    1 NMatS0=      1 NMatT0=    0 NMatD0=    1 NMtDS0=    0 NMtDT0=    0
 Symmetry not used in FoFCou.
 E= -489.485105414793    
 DIIS: error= 1.42D-02 at cycle   1 NSaved=   1.
 NSaved= 1 IEnMin= 1 EnMin= -489.485105414793     IErMin= 1 ErrMin= 1.42D-02
 ErrMax= 1.42D-02  0.00D+00 EMaxC= 1.00D-01 BMatC= 1.08D+00 BMatP= 1.08D+00
 IDIUse=3 WtCom= 8.58D-01 WtEn= 1.42D-01
 Coeff-Com:  0.100D+01
 Coeff-En:   0.100D+01
 Coeff:      0.100D+01
 Gap=     0.563 Goal=   None    Shift=    0.000
 GapD=    0.563 DampG=2.000 DampE=0.500 DampFc=1.0000 IDamp=-1.
 RMSDP=8.03D-04 MaxDP=9.69D-02              OVMax= 1.17D-01

 Cycle   2  Pass 1  IDiag  1:
 RMSU=  7.84D-04    CP:  9.45D-01
 E= -489.791325179379     Delta-E=       -0.306219764587 Rises=F Damp=F
 DIIS: error= 7.32D-03 at cycle   2 NSaved=   2.
 NSaved= 2 IEnMin= 2 EnMin= -489.791325179379     IErMin= 2 ErrMin= 7.32D-03
 ErrMax= 7.32D-03  0.00D+00 EMaxC= 1.00D-01 BMatC= 1.22D-01 BMatP= 1.08D+00
 IDIUse=3 WtCom= 9.27D-01 WtEn= 7.32D-02
 Coeff-Com:  0.169D+00 0.831D+00
 Coeff-En:   0.000D+00 0.100D+01
 Coeff:      0.157D+00 0.843D+00
 Gap=     0.482 Goal=   None    Shift=    0.000
 RMSDP=2.82D-04 MaxDP=3.18D-02 DE=-3.06D-01 OVMax= 5.06D-02

 Cycle   3  Pass 1  IDiag  1:
 RMSU=  2.63D-04    CP:  9.48D-01  8.69D-01
 E= -489.857432302289     Delta-E=       -0.066107122910 Rises=F Damp=F
 DIIS: error= 3.31D-03 at cycle   3 NSaved=   3.
 NSaved= 3 IEnMin= 3 EnMin= -489.857432302289     IErMin= 3 ErrMin= 3.31D-03
 ErrMax= 3.31D-03  0.00D+00 EMaxC= 1.00D-01 BMatC= 2.13D-02 BMatP= 1.22D-01
 IDIUse=3 WtCom= 9.67D-01 WtEn= 3.31D-02
 Coeff-Com: -0.225D-01 0.269D+00 0.753D+00
 Coeff-En:   0.000D+00 0.000D+00 0.100D+01
 Coeff:     -0.217D-01 0.260D+00 0.762D+00
 Gap=     0.444 Goal=   None    Shift=    0.000
 RMSDP=7.69D-05 MaxDP=8.46D-03 DE=-6.61D-02 OVMax= 2.49D-02

 Cycle   4  Pass 1  IDiag  1:
 RMSU=  5.27D-05    CP:  9.48D-01  9.28D-01  8.78D-01
 E= -489.870499517763     Delta-E=       -0.013067215474 Rises=F Damp=F
 DIIS: error= 7.05D-04 at cycle   4 NSaved=   4.
 NSaved= 4 IEnMin= 4 EnMin= -489.870499517763     IErMin= 4 ErrMin= 7.05D-04
 ErrMax= 7.05D-04  0.00D+00 EMaxC= 1.00D-01 BMatC= 6.77D-04 BMatP= 2.13D-02
 IDIUse=3 WtCom= 9.93D-01 WtEn= 7.05D-03
 Coeff-Com: -0.103D-01 0.555D-01 0.226D+00 0.729D+00
 Coeff-En:   0.000D+00 0.000D+00 0.000D+00 0.100D+01
 Coeff:     -0.102D-01 0.551D-01 0.224D+00 0.731D+00
 Gap=     0.435 Goal=   None    Shift=    0.000
 RMSDP=1.77D-05 MaxDP=1.65D-03 DE=-1.31D-02 OVMax= 4.01D-03

 Cycle   5  Pass 1  IDiag  1:
 RMSU=  1.62D-05    CP:  9.47D-01  9.29D-01  9.01D-01  9.24D-01
 E= -489.871112683622     Delta-E=       -0.000613165859 Rises=F Damp=F
 DIIS: error= 1.84D-04 at cycle   5 NSaved=   5.
 NSaved= 5 IEnMin= 5 EnMin= -489.871112683622     IErMin= 5 ErrMin= 1.84D-04
 ErrMax= 1.84D-04  0.00D+00 EMaxC= 1.00D-01 BMatC= 5.01D-05 BMatP= 6.77D-04
 IDIUse=3 WtCom= 9.98D-01 WtEn= 1.84D-03
 Coeff-Com:  0.184D-02-0.239D-01-0.727D-01 0.246D-01 0.107D+01
 Coeff-En:   0.000D+00 0.000D+00 0.000D+00 0.000D+00 0.100D+01
 Coeff:      0.184D-02-0.238D-01-0.725D-01 0.245D-01 0.107D+01
 Gap=     0.435 Goal=   None    Shift=    0.000
 RMSDP=1.11D-05 MaxDP=1.09D-03 DE=-6.13D-04 OVMax= 3.86D-03

 Cycle   6  Pass 1  IDiag  1:
 RMSU=  5.74D-06    CP:  9.48D-01  9.29D-01  9.16D-01  1.06D+00  1.27D+00
 E= -489.871218665971     Delta-E=       -0.000105982349 Rises=F Damp=F
 DIIS: error= 6.56D-05 at cycle   6 NSaved=   6.
 NSaved= 6 IEnMin= 6 EnMin= -489.871218665971     IErMin= 6 ErrMin= 6.56D-05
 ErrMax= 6.56D-05  0.00D+00 EMaxC= 1.00D-01 BMatC= 9.27D-06 BMatP= 5.01D-05
 IDIUse=1 WtCom= 1.00D+00 WtEn= 0.00D+00
 Coeff-Com:  0.153D-02-0.118D-01-0.411D-01-0.924D-01 0.225D+00 0.919D+00
 Coeff:      0.153D-02-0.118D-01-0.411D-01-0.924D-01 0.225D+00 0.919D+00
 Gap=     0.436 Goal=   None    Shift=    0.000
 RMSDP=4.27D-06 MaxDP=3.95D-04 DE=-1.06D-04 OVMax= 1.58D-03

 Cycle   7  Pass 1  IDiag  1:
 RMSU=  2.00D-06    CP:  9.48D-01  9.29D-01  9.21D-01  1.10D+00  1.43D+00
                    CP:  1.20D+00
 E= -489.871236331146     Delta-E=       -0.000017665175 Rises=F Damp=F
 DIIS: error= 2.44D-05 at cycle   7 NSaved=   7.
 NSaved= 7 IEnMin= 7 EnMin= -489.871236331146     IErMin= 7 ErrMin= 2.44D-05
 ErrMax= 2.44D-05  0.00D+00 EMaxC= 1.00D-01 BMatC= 1.08D-06 BMatP= 9.27D-06
 IDIUse=1 WtCom= 1.00D+00 WtEn= 0.00D+00
 Coeff-Com: -0.200D-03 0.291D-02 0.110D-01-0.114D-01-0.125D+00-0.301D-01
 Coeff-Com:  0.115D+01
 Coeff:     -0.200D-03 0.291D-02 0.110D-01-0.114D-01-0.125D+00-0.301D-01
 Coeff:      0.115D+01
 Gap=     0.436 Goal=   None    Shift=    0.000
 RMSDP=1.86D-06 MaxDP=1.32D-04 DE=-1.77D-05 OVMax= 8.10D-04

 Cycle   8  Pass 1  IDiag  1:
 RMSU=  7.80D-07    CP:  9.48D-01  9.28D-01  9.22D-01  1.11D+00  1.48D+00
                    CP:  1.40D+00  1.39D+00
 E= -489.871239521494     Delta-E=       -0.000003190348 Rises=F Damp=F
 DIIS: error= 9.17D-06 at cycle   8 NSaved=   8.
 NSaved= 8 IEnMin= 8 EnMin= -489.871239521494     IErMin= 8 ErrMin= 9.17D-06
 ErrMax= 9.17D-06  0.00D+00 EMaxC= 1.00D-01 BMatC= 1.51D-07 BMatP= 1.08D-06
 IDIUse=1 WtCom= 1.00D+00 WtEn= 0.00D+00
 Coeff-Com: -0.196D-03 0.157D-02 0.566D-02 0.816D-02-0.214D-01-0.119D+00
 Coeff-Com: -0.292D-01 0.115D+01
 Coeff:     -0.196D-03 0.157D-02 0.566D-02 0.816D-02-0.214D-01-0.119D+00
 Coeff:     -0.292D-01 0.115D+01
 Gap=     0.436 Goal=   None    Shift=    0.000
 RMSDP=7.06D-07 MaxDP=5.09D-05 DE=-3.19D-06 OVMax= 2.96D-04

 Cycle   9  Pass 1  IDiag  1:
 RMSU=  2.60D-07    CP:  9.48D-01  9.28D-01  9.23D-01  1.11D+00  1.50D+00
                    CP:  1.45D+00  1.59D+00  1.42D+00
 E= -489.871239951883     Delta-E=       -0.000000430390 Rises=F Damp=F
 DIIS: error= 3.20D-06 at cycle   9 NSaved=   9.
 NSaved= 9 IEnMin= 9 EnMin= -489.871239951883     IErMin= 9 ErrMin= 3.20D-06
 ErrMax= 3.20D-06  0.00D+00 EMaxC= 1.00D-01 BMatC= 2.07D-08 BMatP= 1.51D-07
 IDIUse=1 WtCom= 1.00D+00 WtEn= 0.00D+00
 Coeff-Com: -0.116D-04-0.773D-04-0.297D-03 0.183D-02 0.139D-01-0.180D-01
 Coeff-Com: -0.150D+00 0.184D+00 0.968D+00
 Coeff:     -0.116D-04-0.773D-04-0.297D-03 0.183D-02 0.139D-01-0.180D-01
 Coeff:     -0.150D+00 0.184D+00 0.968D+00
 Gap=     0.436 Goal=   None    Shift=    0.000
 RMSDP=2.06D-07 MaxDP=1.40D-05 DE=-4.30D-07 OVMax= 9.13D-05

 Cycle  10  Pass 1  IDiag  1:
 RMSU=  1.05D-07    CP:  9.48D-01  9.28D-01  9.23D-01  1.11D+00  1.50D+00
                    CP:  1.46D+00  1.62D+00  1.59D+00  1.20D+00
 E= -489.871239997959     Delta-E=       -0.000000046075 Rises=F Damp=F
 DIIS: error= 1.11D-06 at cycle  10 NSaved=  10.
 NSaved=10 IEnMin=10 EnMin= -489.871239997959     IErMin=10 ErrMin= 1.11D-06
 ErrMax= 1.11D-06  0.00D+00 EMaxC= 1.00D-01 BMatC= 2.54D-09 BMatP= 2.07D-08
 IDIUse=1 WtCom= 1.00D+00 WtEn= 0.00D+00
 Coeff-Com:  0.270D-04-0.235D-03-0.776D-03-0.149D-02 0.456D-02 0.158D-01
 Coeff-Com:  0.113D-02-0.164D+00 0.387D-01 0.111D+01
 Coeff:      0.270D-04-0.235D-03-0.776D-03-0.149D-02 0.456D-02 0.158D-01
 Coeff:      0.113D-02-0.164D+00 0.387D-01 0.111D+01
 Gap=     0.436 Goal=   None    Shift=    0.000
 RMSDP=7.95D-08 MaxDP=5.67D-06 DE=-4.61D-08 OVMax= 2.83D-05

 Cycle  11  Pass 1  IDiag  1:
 RMSU=  3.19D-08    CP:  9.48D-01  9.28D-01  9.23D-01  1.11D+00  1.50D+00
                    CP:  1.45D+00  1.63D+00  1.64D+00  1.38D+00  1.33D+00
 E= -489.871240003821     Delta-E=       -0.000000005862 Rises=F Damp=F
 DIIS: error= 3.22D-07 at cycle  11 NSaved=  11.
 NSaved=11 IEnMin=11 EnMin= -489.871240003821     IErMin=11 ErrMin= 3.22D-07
 ErrMax= 3.22D-07  0.00D+00 EMaxC= 1.00D-01 BMatC= 2.13D-10 BMatP= 2.54D-09
 IDIUse=1 WtCom= 1.00D+00 WtEn= 0.00D+00
 Coeff-Com:  0.109D-05 0.291D-05 0.557D-04-0.221D-03-0.136D-02 0.117D-02
 Coeff-Com:  0.146D-01-0.132D-01-0.963D-01-0.494D-01 0.114D+01
 Coeff:      0.109D-05 0.291D-05 0.557D-04-0.221D-03-0.136D-02 0.117D-02
 Coeff:      0.146D-01-0.132D-01-0.963D-01-0.494D-01 0.114D+01
 Gap=     0.436 Goal=   None    Shift=    0.000
 RMSDP=2.69D-08 MaxDP=2.07D-06 DE=-5.86D-09 OVMax= 7.59D-06

 Cycle  12  Pass 1  IDiag  1:
 RMSU=  1.15D-08    CP:  9.48D-01  9.28D-01  9.23D-01  1.11D+00  1.50D+00
                    CP:  1.45D+00  1.63D+00  1.64D+00  1.41D+00  1.50D+00
                    CP:  1.41D+00
 E= -489.871240004392     Delta-E=       -0.000000000572 Rises=F Damp=F
 DIIS: error= 1.58D-07 at cycle  12 NSaved=  12.
 NSaved=12 IEnMin=12 EnMin= -489.871240004392     IErMin=12 ErrMin= 1.58D-07
 ErrMax= 1.58D-07  0.00D+00 EMaxC= 1.00D-01 BMatC= 1.99D-11 BMatP= 2.13D-10
 IDIUse=1 WtCom= 1.00D+00 WtEn= 0.00D+00
 Coeff-Com: -0.225D-05 0.199D-04 0.746D-04 0.126D-03-0.430D-03-0.134D-02
 Coeff-Com:  0.462D-04 0.161D-01-0.545D-02-0.115D+00 0.468D-01 0.106D+01
 Coeff:     -0.225D-05 0.199D-04 0.746D-04 0.126D-03-0.430D-03-0.134D-02
 Coeff:      0.462D-04 0.161D-01-0.545D-02-0.115D+00 0.468D-01 0.106D+01
 Gap=     0.436 Goal=   None    Shift=    0.000
 RMSDP=7.92D-09 MaxDP=4.68D-07 DE=-5.72D-10 OVMax= 2.15D-06

 SCF Done:  E(RHF) =  -489.871240004     A.U. after   12 cycles
            NFock= 12  Conv=0.79D-08     -V/T= 2.0012
 KE= 4.892810941965D+02 PE=-2.087855634328D+03 EE= 6.408256076515D+02
 Leave Link  502 at Wed Jan 27 21:37:58 2021, MaxMem=  8053063680 cpu:           22734.3 elap:             355.4
 (Enter /home/share/software/programs/Gaussian/g16/l801.exe)
 ExpMin= 3.22D-02 ExpMax= 6.14D+04 ExpMxC= 5.91D+02 IAcc=3 IRadAn=         5 AccDes= 0.00D+00
 HarFok:  IExCor=  205 AccDes= 0.00D+00 IRadAn=         5 IDoV=-2 UseB2=F ITyADJ=14
 ICtDFT= 12500011 ScaDFX=  1.000000  1.000000  1.000000  1.000000
 DSYEVD-2 returned Info=        2663 IAlg= 4 N=    71 NDim=    71 NE2=   113389939 trying  DSYEV.
 DSYEVD-2 returned Info=        2663 IAlg= 4 N=    71 NDim=    71 NE2=   113389939 trying  DSYEV.
 DSYEVD-2 returned Info=        2663 IAlg= 4 N=    71 NDim=    71 NE2=   113389939 trying  DSYEV.
 DSYEVD-2 returned Info=        2663 IAlg= 4 N=    71 NDim=    71 NE2=   113389939 trying  DSYEV.
 DSYEVD-2 returned Info=        2663 IAlg= 4 N=    71 NDim=    71 NE2=   113389939 trying  DSYEV.
 Largest valence mixing into a core orbital is  1.88D-04
 Largest core mixing into a valence orbital is  3.07D-05
 Range of M.O.s used for correlation:    10   879
 NBasis=   879 NAE=    35 NBE=    35 NFC=     9 NFV=     0
 NROrb=    870 NOA=    26 NOB=    26 NVA=   844 NVB=   844

 **** Warning!!: The largest alpha MO coefficient is  0.74530872D+02

 Leave Link  801 at Wed Jan 27 21:38:00 2021, MaxMem=  8053063680 cpu:              41.0 elap:               0.8
 (Enter /home/share/software/programs/Gaussian/g16/l906.exe)
 FulOut=F Deriv=F AODrv=F NAtomX=    17
   MMem=           4  MDisk=          26 MDiskD=          26
  W3Min=    23918960 MinDsk=    28670131 NBas6D=        1090
 NBas2D=      598102    NTT=      594595    LW2=     4508827
    MDV=  8049869341 MDiskM=       16407 NBas2p=      521312
 Disk-based method using OVN memory for 26 occupieds at a time.
 Estimated scratch disk usage= 37352736000 words.
 IMap=   1   2   3   4   5   6   7   8   9  10  11  12  13  14  15  16  17  18  19  20
 IMap=  21  22  23  24  25  26
 Actual    scratch disk usage= 34320385280 words.
 JobTyp=1 Pass  1:  I=   1 to  26 NPSUse= 64 ParTrn=T ParDer=T DoDerP=F.
 Spin components of T(2) and E(2):
     alpha-alpha T2 =       0.6641172646D-01 E2=     -0.2352903648D+00
     alpha-beta  T2 =       0.3655020691D+00 E2=     -0.1433826895D+01
     beta-beta   T2 =       0.6641172646D-01 E2=     -0.2352903648D+00
 The integrals were generated   1 times.
 ANorm=    0.1224061078D+01
 E2 =    -0.1904407624D+01 EUMP2 =    -0.49177564762883D+03
 Leave Link  906 at Wed Jan 27 22:34:05 2021, MaxMem=  8053063680 cpu:          213483.2 elap:            3365.7
 (Enter /home/share/software/programs/Gaussian/g16/l601.exe)
 Copying SCF densities to generalized density rwf, IOpCl= 0 IROHF=0.

 **********************************************************************

            Population analysis using the SCF Density.

 **********************************************************************

 Orbital symmetries:
       Occupied  (A) (A) (A) (A) (A) (A) (A) (A) (A) (A) (A) (A)
                 (A) (A) (A) (A) (A) (A) (A) (A) (A) (A) (A) (A)
                 (A) (A) (A) (A) (A) (A) (A) (A) (A) (A) (A)
       Virtual   (A) (A) (A) (A) (A) (A) (A) (A) (A) (A) (A) (A)
                 (A) (A) (A) (A) (A) (A) (A) (A) (A) (A) (A) (A)
                 (A) (A) (A) (A) (A) (A) (A) (A) (A) (A) (A) (A)
                 (A) (A) (A) (A) (A) (A) (A) (A) (A) (A) (A) (A)
                 (A) (A) (A) (A) (A) (A) (A) (A) (A) (A) (A) (A)
                 (A) (A) (A) (A) (A) (A) (A) (A) (A) (A) (A) (A)
                 (A) (A) (A) (A) (A) (A) (A) (A) (A) (A) (A) (A)
                 (A) (A) (A) (A) (A) (A) (A) (A) (A) (A) (A) (A)
                 (A) (A) (A) (A) (A) (A) (A) (A) (A) (A) (A) (A)
                 (A) (A) (A) (A) (A) (A) (A) (A) (A) (A) (A) (A)
                 (A) (A) (A) (A) (A) (A) (A) (A) (A) (A) (A) (A)
                 (A) (A) (A) (A) (A) (A) (A) (A) (A) (A) (A) (A)
                 (A) (A) (A) (A) (A) (A) (A) (A) (A) (A) (A) (A)
                 (A) (A) (A) (A) (A) (A) (A) (A) (A) (A) (A) (A)
                 (A) (A) (A) (A) (A) (A) (A) (A) (A) (A) (A) (A)
                 (A) (A) (A) (A) (A) (A) (A) (A) (A) (A) (A) (A)
                 (A) (A) (A) (A) (A) (A) (A) (A) (A) (A) (A) (A)
                 (A) (A) (A) (A) (A) (A) (A) (A) (A) (A) (A) (A)
                 (A) (A) (A) (A) (A) (A) (A) (A) (A) (A) (A) (A)
                 (A) (A) (A) (A) (A) (A) (A) (A) (A) (A) (A) (A)
                 (A) (A) (A) (A) (A) (A) (A) (A) (A) (A) (A) (A)
                 (A) (A) (A) (A) (A) (A) (A) (A) (A) (A) (A) (A)
                 (A) (A) (A) (A) (A) (A) (A) (A) (A) (A) (A) (A)
                 (A) (A) (A) (A) (A) (A) (A) (A) (A) (A) (A) (A)
                 (A) (A) (A) (A) (A) (A) (A) (A) (A) (A) (A) (A)
                 (A) (A) (A) (A) (A) (A) (A) (A) (A) (A) (A) (A)
                 (A) (A) (A) (A) (A) (A) (A) (A) (A) (A) (A) (A)
                 (A) (A) (A) (A) (A) (A) (A) (A) (A) (A) (A) (A)
                 (A) (A) (A) (A) (A) (A) (A) (A) (A) (A) (A) (A)
                 (A) (A) (A) (A) (A) (A) (A) (A) (A) (A) (A) (A)
                 (A) (A) (A) (A) (A) (A) (A) (A) (A) (A) (A) (A)
                 (A) (A) (A) (A) (A) (A) (A) (A) (A) (A) (A) (A)
                 (A) (A) (A) (A) (A) (A) (A) (A) (A) (A) (A) (A)
                 (A) (A) (A) (A) (A) (A) (A) (A) (A) (A) (A) (A)
                 (A) (A) (A) (A) (A) (A) (A) (A) (A) (A) (A) (A)
                 (A) (A) (A) (A) (A) (A) (A) (A) (A) (A) (A) (A)
                 (A) (A) (A) (A) (A) (A) (A) (A) (A) (A) (A) (A)
                 (A) (A) (A) (A) (A) (A) (A) (A) (A) (A) (A) (A)
                 (A) (A) (A) (A) (A) (A) (A) (A) (A) (A) (A) (A)
                 (A) (A) (A) (A) (A) (A) (A) (A) (A) (A) (A) (A)
                 (A) (A) (A) (A) (A) (A) (A) (A) (A) (A) (A) (A)
                 (A) (A) (A) (A) (A) (A) (A) (A) (A) (A) (A) (A)
                 (A) (A) (A) (A) (A) (A) (A) (A) (A) (A) (A) (A)
                 (A) (A) (A) (A) (A) (A) (A) (A) (A) (A) (A) (A)
                 (A) (A) (A) (A) (A) (A) (A) (A) (A) (A) (A) (A)
                 (A) (A) (A) (A) (A) (A) (A) (A) (A) (A) (A) (A)
                 (A) (A) (A) (A) (A) (A) (A) (A) (A) (A) (A) (A)
                 (A) (A) (A) (A) (A) (A) (A) (A) (A) (A) (A) (A)
                 (A) (A) (A) (A) (A) (A) (A) (A) (A) (A) (A) (A)
                 (A) (A) (A) (A) (A) (A) (A) (A) (A) (A) (A) (A)
                 (A) (A) (A) (A) (A) (A) (A) (A) (A) (A) (A) (A)
                 (A) (A) (A) (A) (A) (A) (A) (A) (A) (A) (A) (A)
                 (A) (A) (A) (A) (A) (A) (A) (A) (A) (A) (A) (A)
                 (A) (A) (A) (A) (A) (A) (A) (A) (A) (A) (A) (A)
                 (A) (A) (A) (A) (A) (A) (A) (A) (A) (A) (A) (A)
                 (A) (A) (A) (A) (A) (A) (A) (A) (A) (A) (A) (A)
                 (A) (A) (A) (A) (A) (A) (A) (A) (A) (A) (A) (A)
                 (A) (A) (A) (A) (A) (A) (A) (A) (A) (A) (A) (A)
                 (A) (A) (A) (A) (A) (A) (A) (A) (A) (A) (A) (A)
                 (A) (A) (A) (A) (A) (A) (A) (A) (A) (A) (A) (A)
                 (A) (A) (A) (A) (A) (A) (A) (A) (A) (A) (A) (A)
                 (A) (A) (A) (A) (A) (A) (A) (A) (A) (A) (A) (A)
                 (A) (A) (A) (A) (A) (A) (A) (A) (A) (A) (A) (A)
                 (A) (A) (A) (A) (A) (A) (A) (A) (A) (A) (A) (A)
                 (A) (A) (A) (A) (A) (A) (A) (A) (A) (A) (A) (A)
                 (A) (A) (A) (A) (A) (A) (A) (A) (A) (A) (A) (A)
                 (A) (A) (A) (A) (A) (A) (A) (A) (A) (A) (A) (A)
                 (A) (A) (A) (A) (A) (A) (A) (A) (A) (A) (A) (A)
                 (A) (A) (A) (A) (A) (A) (A) (A) (A) (A) (A) (A)
                 (A) (A) (A) (A) (A) (A) (A) (A) (A) (A) (A) (A)
                 (A) (A) (A) (A)
 The electronic state is 1-A.
 Alpha  occ. eigenvalues --  -20.58285 -20.54672 -20.53234 -15.61388 -15.58625
 Alpha  occ. eigenvalues --  -11.37698 -11.37392 -11.29724 -11.29658  -1.44586
 Alpha  occ. eigenvalues --   -1.40979  -1.34771  -1.27020  -1.22050  -1.02938
 Alpha  occ. eigenvalues --   -0.96518  -0.83219  -0.80466  -0.75010  -0.72913
 Alpha  occ. eigenvalues --   -0.71260  -0.69014  -0.65233  -0.64230  -0.61660
 Alpha  occ. eigenvalues --   -0.61458  -0.59520  -0.57798  -0.55605  -0.54542
 Alpha  occ. eigenvalues --   -0.47535  -0.46366  -0.46061  -0.43486  -0.41255
 Alpha virt. eigenvalues --    0.02306   0.03893   0.04471   0.05463   0.06529
 Alpha virt. eigenvalues --    0.06827   0.07135   0.08002   0.08807   0.09807
 Alpha virt. eigenvalues --    0.10144   0.10365   0.11123   0.11240   0.13580
 Alpha virt. eigenvalues --    0.13689   0.13950   0.14961   0.15472   0.15743
 Alpha virt. eigenvalues --    0.16087   0.17047   0.17466   0.18009   0.18883
 Alpha virt. eigenvalues --    0.19212   0.19292   0.20794   0.21557   0.21814
 Alpha virt. eigenvalues --    0.22273   0.22742   0.23178   0.23737   0.24391
 Alpha virt. eigenvalues --    0.24514   0.24847   0.25598   0.26373   0.27305
 Alpha virt. eigenvalues --    0.27661   0.28592   0.29122   0.29389   0.30520
 Alpha virt. eigenvalues --    0.31006   0.31473   0.31624   0.32992   0.33642
 Alpha virt. eigenvalues --    0.34275   0.35123   0.35539   0.36154   0.36668
 Alpha virt. eigenvalues --    0.37428   0.37647   0.39220   0.39255   0.40456
 Alpha virt. eigenvalues --    0.40879   0.41623   0.42477   0.43031   0.43328
 Alpha virt. eigenvalues --    0.44527   0.44602   0.44885   0.45521   0.45760
 Alpha virt. eigenvalues --    0.46680   0.47024   0.48510   0.49335   0.49934
 Alpha virt. eigenvalues --    0.51132   0.51210   0.51974   0.52379   0.52665
 Alpha virt. eigenvalues --    0.53817   0.54736   0.55059   0.55566   0.56412
 Alpha virt. eigenvalues --    0.56825   0.57514   0.57948   0.59241   0.59812
 Alpha virt. eigenvalues --    0.60756   0.61429   0.62106   0.62436   0.62736
 Alpha virt. eigenvalues --    0.64006   0.65543   0.65782   0.66530   0.67124
 Alpha virt. eigenvalues --    0.68019   0.68717   0.69384   0.69645   0.70326
 Alpha virt. eigenvalues --    0.71286   0.71707   0.72387   0.73579   0.74146
 Alpha virt. eigenvalues --    0.74668   0.75216   0.76071   0.77143   0.78342
 Alpha virt. eigenvalues --    0.78886   0.79119   0.80142   0.80722   0.81012
 Alpha virt. eigenvalues --    0.82057   0.83568   0.84394   0.84533   0.86014
 Alpha virt. eigenvalues --    0.88061   0.88615   0.89275   0.89936   0.91191
 Alpha virt. eigenvalues --    0.92085   0.92791   0.93486   0.94167   0.95271
 Alpha virt. eigenvalues --    0.95792   0.96911   0.97566   0.97952   0.98858
 Alpha virt. eigenvalues --    0.99749   1.00854   1.01707   1.01926   1.02345
 Alpha virt. eigenvalues --    1.03553   1.04191   1.04993   1.06291   1.06833
 Alpha virt. eigenvalues --    1.07797   1.08710   1.10004   1.10477   1.11078
 Alpha virt. eigenvalues --    1.11449   1.12123   1.13265   1.13746   1.14397
 Alpha virt. eigenvalues --    1.15017   1.15994   1.16625   1.17197   1.18119
 Alpha virt. eigenvalues --    1.18799   1.20704   1.21882   1.23105   1.23453
 Alpha virt. eigenvalues --    1.23590   1.24476   1.25873   1.27069   1.27193
 Alpha virt. eigenvalues --    1.27355   1.29235   1.29952   1.30364   1.30858
 Alpha virt. eigenvalues --    1.31995   1.32496   1.33542   1.35117   1.35927
 Alpha virt. eigenvalues --    1.36467   1.36912   1.38249   1.38714   1.39384
 Alpha virt. eigenvalues --    1.40161   1.41587   1.42387   1.43565   1.44109
 Alpha virt. eigenvalues --    1.45598   1.45769   1.46525   1.47921   1.48304
 Alpha virt. eigenvalues --    1.49111   1.50902   1.51863   1.53455   1.54228
 Alpha virt. eigenvalues --    1.55348   1.55987   1.58674   1.59003   1.60148
 Alpha virt. eigenvalues --    1.60837   1.62414   1.62635   1.62755   1.65050
 Alpha virt. eigenvalues --    1.65571   1.68163   1.68855   1.69927   1.70725
 Alpha virt. eigenvalues --    1.71555   1.72918   1.74088   1.74663   1.75927
 Alpha virt. eigenvalues --    1.76168   1.78034   1.79036   1.79367   1.79965
 Alpha virt. eigenvalues --    1.80790   1.81040   1.82383   1.82834   1.84467
 Alpha virt. eigenvalues --    1.85936   1.86146   1.87249   1.89500   1.89630
 Alpha virt. eigenvalues --    1.90440   1.92050   1.92305   1.93856   1.94089
 Alpha virt. eigenvalues --    1.94618   1.95739   1.96889   1.99132   1.99610
 Alpha virt. eigenvalues --    2.00359   2.02271   2.02938   2.03639   2.03980
 Alpha virt. eigenvalues --    2.05398   2.06042   2.07376   2.08207   2.09333
 Alpha virt. eigenvalues --    2.10196   2.11960   2.12239   2.14770   2.15203
 Alpha virt. eigenvalues --    2.15533   2.16507   2.16787   2.18908   2.21340
 Alpha virt. eigenvalues --    2.21571   2.23169   2.23478   2.25071   2.26184
 Alpha virt. eigenvalues --    2.28009   2.29230   2.29790   2.30431   2.32652
 Alpha virt. eigenvalues --    2.34047   2.34874   2.36150   2.37951   2.38112
 Alpha virt. eigenvalues --    2.39977   2.40370   2.40542   2.43451   2.44819
 Alpha virt. eigenvalues --    2.45141   2.48093   2.48595   2.50031   2.50891
 Alpha virt. eigenvalues --    2.52310   2.53267   2.55691   2.56489   2.57708
 Alpha virt. eigenvalues --    2.59021   2.59495   2.61147   2.61736   2.64648
 Alpha virt. eigenvalues --    2.65455   2.68044   2.68438   2.69741   2.70479
 Alpha virt. eigenvalues --    2.71823   2.72931   2.74565   2.75896   2.77252
 Alpha virt. eigenvalues --    2.77978   2.80407   2.80717   2.81197   2.81357
 Alpha virt. eigenvalues --    2.83623   2.83718   2.84861   2.85631   2.87555
 Alpha virt. eigenvalues --    2.87830   2.90436   2.90565   2.92335   2.93106
 Alpha virt. eigenvalues --    2.93706   2.95389   2.96695   2.97815   2.99158
 Alpha virt. eigenvalues --    3.00173   3.01139   3.02283   3.03100   3.04119
 Alpha virt. eigenvalues --    3.05938   3.06685   3.07024   3.08858   3.09204
 Alpha virt. eigenvalues --    3.12842   3.12976   3.14349   3.15167   3.15306
 Alpha virt. eigenvalues --    3.18198   3.18336   3.19341   3.20916   3.22721
 Alpha virt. eigenvalues --    3.24327   3.25207   3.26196   3.26750   3.29605
 Alpha virt. eigenvalues --    3.30628   3.31289   3.31734   3.33499   3.35621
 Alpha virt. eigenvalues --    3.37219   3.37666   3.38815   3.40156   3.41435
 Alpha virt. eigenvalues --    3.41974   3.43987   3.45452   3.46707   3.48293
 Alpha virt. eigenvalues --    3.49731   3.50201   3.52363   3.53220   3.54478
 Alpha virt. eigenvalues --    3.55496   3.57790   3.59019   3.60162   3.62438
 Alpha virt. eigenvalues --    3.63230   3.63924   3.65045   3.66387   3.69125
 Alpha virt. eigenvalues --    3.71878   3.72531   3.73791   3.75094   3.77236
 Alpha virt. eigenvalues --    3.79117   3.80600   3.81143   3.81987   3.83227
 Alpha virt. eigenvalues --    3.86369   3.88754   3.90258   3.92584   3.92697
 Alpha virt. eigenvalues --    3.95002   3.97710   3.98202   4.01103   4.01807
 Alpha virt. eigenvalues --    4.02630   4.03318   4.06647   4.07183   4.09279
 Alpha virt. eigenvalues --    4.11536   4.13139   4.13978   4.15566   4.15731
 Alpha virt. eigenvalues --    4.19306   4.19771   4.21477   4.22716   4.24875
 Alpha virt. eigenvalues --    4.27074   4.29394   4.30287   4.31110   4.32299
 Alpha virt. eigenvalues --    4.33724   4.34943   4.35333   4.37966   4.39961
 Alpha virt. eigenvalues --    4.40347   4.44631   4.46204   4.49703   4.50510
 Alpha virt. eigenvalues --    4.51693   4.54275   4.55405   4.57455   4.58307
 Alpha virt. eigenvalues --    4.61621   4.63751   4.64071   4.64788   4.65925
 Alpha virt. eigenvalues --    4.67894   4.69092   4.70223   4.72335   4.72983
 Alpha virt. eigenvalues --    4.75828   4.78337   4.78836   4.80798   4.83852
 Alpha virt. eigenvalues --    4.84834   4.87532   4.88935   4.90135   4.93680
 Alpha virt. eigenvalues --    4.95614   4.97156   5.00075   5.00782   5.04126
 Alpha virt. eigenvalues --    5.05553   5.07785   5.09119   5.13130   5.15338
 Alpha virt. eigenvalues --    5.15917   5.16817   5.20540   5.21679   5.25970
 Alpha virt. eigenvalues --    5.29948   5.38089   5.40507   5.50599   5.54819
 Alpha virt. eigenvalues --    5.59146   5.59224   5.64234   5.68763   5.70014
 Alpha virt. eigenvalues --    5.75272   5.79633   5.82909   5.84062   5.85972
 Alpha virt. eigenvalues --    5.91107   5.95640   5.97170   6.00980   6.02017
 Alpha virt. eigenvalues --    6.03283   6.05399   6.08020   6.09585   6.10637
 Alpha virt. eigenvalues --    6.12045   6.15157   6.15509   6.16392   6.18586
 Alpha virt. eigenvalues --    6.19410   6.20683   6.23552   6.25735   6.27840
 Alpha virt. eigenvalues --    6.29679   6.30707   6.31129   6.32699   6.35250
 Alpha virt. eigenvalues --    6.36897   6.38460   6.40501   6.42202   6.43008
 Alpha virt. eigenvalues --    6.43900   6.46267   6.46414   6.49054   6.49552
 Alpha virt. eigenvalues --    6.51314   6.51900   6.53111   6.57827   6.58941
 Alpha virt. eigenvalues --    6.59792   6.61551   6.62596   6.65656   6.66286
 Alpha virt. eigenvalues --    6.67378   6.69185   6.72485   6.74489   6.75018
 Alpha virt. eigenvalues --    6.76402   6.77699   6.80303   6.80662   6.82168
 Alpha virt. eigenvalues --    6.83337   6.83587   6.87030   6.88711   6.89279
 Alpha virt. eigenvalues --    6.92864   6.93790   6.94583   6.96584   6.99448
 Alpha virt. eigenvalues --    7.01455   7.02218   7.04858   7.06955   7.10032
 Alpha virt. eigenvalues --    7.11160   7.14427   7.16417   7.19033   7.20773
 Alpha virt. eigenvalues --    7.21832   7.23491   7.25435   7.27874   7.30552
 Alpha virt. eigenvalues --    7.31115   7.33020   7.34402   7.37603   7.39153
 Alpha virt. eigenvalues --    7.40248   7.42528   7.43521   7.45049   7.46027
 Alpha virt. eigenvalues --    7.47023   7.51592   7.51986   7.55487   7.56342
 Alpha virt. eigenvalues --    7.57200   7.61549   7.62505   7.64314   7.66027
 Alpha virt. eigenvalues --    7.67074   7.69408   7.70192   7.72010   7.76740
 Alpha virt. eigenvalues --    7.77422   7.80099   7.80510   7.84512   7.85841
 Alpha virt. eigenvalues --    7.88349   7.89123   7.89776   7.92608   7.93715
 Alpha virt. eigenvalues --    7.96629   8.00067   8.01376   8.04252   8.05535
 Alpha virt. eigenvalues --    8.06492   8.09104   8.10287   8.12085   8.12308
 Alpha virt. eigenvalues --    8.16154   8.16853   8.19766   8.20402   8.24314
 Alpha virt. eigenvalues --    8.24697   8.27695   8.29224   8.31300   8.33508
 Alpha virt. eigenvalues --    8.34796   8.37280   8.38962   8.40060   8.40700
 Alpha virt. eigenvalues --    8.41314   8.46106   8.49016   8.50662   8.51268
 Alpha virt. eigenvalues --    8.52412   8.55053   8.55474   8.57056   8.59478
 Alpha virt. eigenvalues --    8.61984   8.63709   8.65224   8.66493   8.69394
 Alpha virt. eigenvalues --    8.70623   8.71512   8.73477   8.75871   8.77185
 Alpha virt. eigenvalues --    8.78566   8.80646   8.82811   8.83128   8.85106
 Alpha virt. eigenvalues --    8.86946   8.87711   8.88900   8.90107   8.91582
 Alpha virt. eigenvalues --    8.92960   8.96124   8.96341   8.99651   9.00296
 Alpha virt. eigenvalues --    9.01493   9.03928   9.04737   9.07281   9.11107
 Alpha virt. eigenvalues --    9.12372   9.13958   9.15474   9.17962   9.18922
 Alpha virt. eigenvalues --    9.19984   9.20771   9.23993   9.24452   9.26352
 Alpha virt. eigenvalues --    9.29148   9.30104   9.33696   9.34411   9.35341
 Alpha virt. eigenvalues --    9.36647   9.40128   9.40852   9.41773   9.42876
 Alpha virt. eigenvalues --    9.43607   9.44975   9.46222   9.48687   9.49532
 Alpha virt. eigenvalues --    9.52551   9.53539   9.55393   9.57822   9.60311
 Alpha virt. eigenvalues --    9.61853   9.63729   9.65929   9.66507   9.68230
 Alpha virt. eigenvalues --    9.71633   9.73440   9.74595   9.76776   9.78165
 Alpha virt. eigenvalues --    9.81238   9.84709   9.86591   9.87897   9.89431
 Alpha virt. eigenvalues --    9.93776   9.95230   9.98826  10.03691  10.05444
 Alpha virt. eigenvalues --   10.16894  10.18381  10.20617  10.23595  10.26737
 Alpha virt. eigenvalues --   10.29909  10.31627  10.34377  10.35951  10.40903
 Alpha virt. eigenvalues --   10.43999  10.48378  10.51099  10.53409  10.56025
 Alpha virt. eigenvalues --   10.59340  10.60403  10.61968  10.63113  10.64054
 Alpha virt. eigenvalues --   10.69702  10.72561  10.76325  10.79004  10.81543
 Alpha virt. eigenvalues --   10.85259  10.86176  10.89630  10.90265  10.92142
 Alpha virt. eigenvalues --   10.96938  10.99868  11.02438  11.04114  11.06494
 Alpha virt. eigenvalues --   11.09963  11.14915  11.26731  11.29202  11.31158
 Alpha virt. eigenvalues --   11.36831  11.38606  11.41987  11.45664  11.50855
 Alpha virt. eigenvalues --   11.52330  11.68509  11.71488  11.73981  11.82474
 Alpha virt. eigenvalues --   11.93438  11.96659  12.00674  12.01324  12.03459
 Alpha virt. eigenvalues --   12.04149  12.06117  12.09811  12.10564  12.13398
 Alpha virt. eigenvalues --   12.14974  12.19987  12.21474  12.23599  12.28632
 Alpha virt. eigenvalues --   12.29808  12.33512  12.35410  12.37189  12.41099
 Alpha virt. eigenvalues --   12.43250  12.47541  12.47840  12.49134  12.52223
 Alpha virt. eigenvalues --   12.56849  12.58850  12.60157  12.62977  12.64403
 Alpha virt. eigenvalues --   12.71548  12.81422  12.86358  13.00866  13.04374
 Alpha virt. eigenvalues --   13.05631  13.08556  13.12994  13.15993  13.17114
 Alpha virt. eigenvalues --   13.30196  13.33540  13.41176  13.43049  13.64799
 Alpha virt. eigenvalues --   13.76420  13.88795  13.90421  14.01808  14.24219
 Alpha virt. eigenvalues --   14.35531  14.37324  14.39324  14.53080  14.79173
 Alpha virt. eigenvalues --   14.81233  14.89601  14.92576  14.97172  17.02050
 Alpha virt. eigenvalues --   25.51754  25.57238  26.98254  27.06329  34.80786
 Alpha virt. eigenvalues --   35.31920  43.64049  43.91474  44.81519
          Condensed to atoms (all electrons):
               1          2          3          4          5          6
     1  C    4.958855   0.427837   0.450671   0.146673  -0.026594  -0.050052
     2  H    0.427837   0.412562  -0.001037   0.003695  -0.026519  -0.009945
     3  H    0.450671  -0.001037   0.373675  -0.022395  -0.006983  -0.001084
     4  C    0.146673   0.003695  -0.022395   5.026808   0.265448   0.245131
     5  O   -0.026594  -0.026519  -0.006983   0.265448   8.597294  -0.049834
     6  N   -0.050052  -0.009945  -0.001084   0.245131  -0.049834   6.719354
     7  H   -0.004226   0.000351   0.000142  -0.046524   0.004066   0.386626
     8  C    0.008220  -0.000783  -0.000052  -0.121992   0.009192   0.216586
     9  H   -0.000684   0.000071  -0.000001  -0.010489  -0.002152  -0.019036
    10  H    0.000205  -0.000071   0.000069   0.000701  -0.000990  -0.030406
    11  C    0.000814   0.000197  -0.000023  -0.013379  -0.010060  -0.084687
    12  O   -0.000565   0.000009  -0.000009   0.004317  -0.001963   0.009347
    13  O   -0.000400   0.000097   0.000003  -0.008254  -0.009813  -0.000422
    14  H   -0.001921   0.000102  -0.000118  -0.007614  -0.003672   0.003119
    15  N    0.192175  -0.021848  -0.028094  -0.027873   0.012726  -0.069430
    16  H   -0.031672  -0.000518  -0.008545   0.019985  -0.001012  -0.002547
    17  H    0.002771  -0.009269   0.003241  -0.003484   0.000027   0.002371
               7          8          9         10         11         12
     1  C   -0.004226   0.008220  -0.000684   0.000205   0.000814  -0.000565
     2  H    0.000351  -0.000783   0.000071  -0.000071   0.000197   0.000009
     3  H    0.000142  -0.000052  -0.000001   0.000069  -0.000023  -0.000009
     4  C   -0.046524  -0.121992  -0.010489   0.000701  -0.013379   0.004317
     5  O    0.004066   0.009192  -0.002152  -0.000990  -0.010060  -0.001963
     6  N    0.386626   0.216586  -0.019036  -0.030406  -0.084687   0.009347
     7  H    0.413808  -0.031697   0.000787  -0.000124   0.000485  -0.000251
     8  C   -0.031697   5.090486   0.438170   0.444817   0.362467  -0.041735
     9  H    0.000787   0.438170   0.371182  -0.013825  -0.004815  -0.000685
    10  H   -0.000124   0.444817  -0.013825   0.360902  -0.024293  -0.001245
    11  C    0.000485   0.362467  -0.004815  -0.024293   4.307744   0.394049
    12  O   -0.000251  -0.041735  -0.000685  -0.001245   0.394049   8.394477
    13  O   -0.000416  -0.030537  -0.007217   0.002779   0.205971  -0.077865
    14  H    0.000620   0.002420   0.002498  -0.000231   0.003911   0.006739
    15  N    0.021676  -0.007517  -0.000464   0.000778  -0.000910   0.000586
    16  H   -0.001644  -0.000764   0.000009  -0.000005  -0.000025  -0.000002
    17  H   -0.000619   0.000388   0.000005   0.000012  -0.000272  -0.000015
              13         14         15         16         17
     1  C   -0.000400  -0.001921   0.192175  -0.031672   0.002771
     2  H    0.000097   0.000102  -0.021848  -0.000518  -0.009269
     3  H    0.000003  -0.000118  -0.028094  -0.008545   0.003241
     4  C   -0.008254  -0.007614  -0.027873   0.019985  -0.003484
     5  O   -0.009813  -0.003672   0.012726  -0.001012   0.000027
     6  N   -0.000422   0.003119  -0.069430  -0.002547   0.002371
     7  H   -0.000416   0.000620   0.021676  -0.001644  -0.000619
     8  C   -0.030537   0.002420  -0.007517  -0.000764   0.000388
     9  H   -0.007217   0.002498  -0.000464   0.000009   0.000005
    10  H    0.002779  -0.000231   0.000778  -0.000005   0.000012
    11  C    0.205971   0.003911  -0.000910  -0.000025  -0.000272
    12  O   -0.077865   0.006739   0.000586  -0.000002  -0.000015
    13  O    8.333316   0.247826  -0.001193   0.000030   0.000113
    14  H    0.247826   0.365698  -0.000000  -0.000001  -0.000012
    15  N   -0.001193  -0.000000   6.879652   0.372537   0.330408
    16  H    0.000030  -0.000001   0.372537   0.478244  -0.020282
    17  H    0.000113  -0.000012   0.330408  -0.020282   0.497217
 Mulliken charges:
               1
     1  C   -0.072106
     2  H    0.225068
     3  H    0.240542
     4  C    0.549244
     5  O   -0.749161
     6  N   -0.265090
     7  H    0.256942
     8  C   -0.337669
     9  H    0.246648
    10  H    0.260927
    11  C    0.862824
    12  O   -0.685187
    13  O   -0.654018
    14  H    0.380636
    15  N   -0.653212
    16  H    0.196212
    17  H    0.197401
 Sum of Mulliken charges =  -0.00000
 Mulliken charges with hydrogens summed into heavy atoms:
               1
     1  C    0.393504
     4  C    0.549244
     5  O   -0.749161
     6  N   -0.008148
     8  C    0.169906
    11  C    0.862824
    12  O   -0.685187
    13  O   -0.273382
    15  N   -0.259599
 Electronic spatial extent (au):  <R**2>=           1418.9032
 Charge=              0.0000 electrons
 Dipole moment (field-independent basis, Debye):
    X=             -7.3847    Y=             -2.2029    Z=              1.3648  Tot=              7.8262
 Quadrupole moment (field-independent basis, Debye-Ang):
   XX=            -56.1180   YY=            -58.1731   ZZ=            -50.5737
   XY=              5.1302   XZ=              8.5597   YZ=             -0.6864
 Traceless Quadrupole moment (field-independent basis, Debye-Ang):
   XX=             -1.1630   YY=             -3.2182   ZZ=              4.3812
   XY=              5.1302   XZ=              8.5597   YZ=             -0.6864
 Octapole moment (field-independent basis, Debye-Ang**2):
  XXX=            -99.3997  YYY=             -9.3230  ZZZ=             -3.2905  XYY=             -3.1296
  XXY=              6.3140  XXZ=              9.2783  XZZ=             -5.7938  YZZ=             -2.5985
  YYZ=             -1.8709  XYZ=             -3.3309
 Hexadecapole moment (field-independent basis, Debye-Ang**3):
 XXXX=          -1283.5799 YYYY=           -332.9933 ZZZZ=           -139.9009 XXXY=             83.5825
 XXXZ=             44.8993 YYYX=             16.9537 YYYZ=             -6.9791 ZZZX=             12.6395
 ZZZY=              6.7579 XXYY=           -281.2301 XXZZ=           -228.6562 YYZZ=            -75.3458
 XXYZ=              7.2431 YYXZ=             12.8677 ZZXY=              4.0852
 N-N= 4.678776924756D+02 E-N=-2.087855631054D+03  KE= 4.892810941965D+02
 Leave Link  601 at Wed Jan 27 22:34:34 2021, MaxMem=  8053063680 cpu:              80.4 elap:              20.5
 (Enter /home/share/software/programs/Gaussian/g16/l9999.exe)
 Unable to Open any file for archive entry.
 1\1\GINC-CU39\SP\RMP2-FC\Jun-CC-pVQZ\C4H8N2O3\ROOT\27-Jan-2021\0\\#p M
 P2/jun-cc-pvqz\\SP\\0,1\C\H,1,1.09325266\H,1,1.09226475,2,106.82669456
 \C,1,1.51842379,3,106.0068906,2,113.61777088,0\O,4,1.23621512,1,121.06
 245671,3,-71.55753721,0\N,4,1.34016715,1,115.7184743,5,179.51961606,0\
 H,6,1.01064297,4,115.8844116,1,1.27725863,0\C,6,1.45290563,4,122.54673
 513,1,-173.06572813,0\H,8,1.09419066,6,108.93103957,4,45.70826425,0\H,
 8,1.08630229,6,108.78837013,4,164.74880456,0\C,8,1.5300009,6,113.71276
 023,4,-75.18113326,0\O,11,1.20547047,8,122.27418472,6,-123.46052063,0\
 O,11,1.33554501,8,115.23589498,6,57.7653825,0\H,13,0.98634932,11,109.7
 4230416,8,-0.34158446,0\N,1,1.46093756,4,112.53744367,5,168.75655791,0
 \H,15,1.01068843,1,111.16001147,4,149.07797914,0\H,15,1.01227526,1,111
 .04355895,4,-91.68667381,0\\Version=ES64L-G16RevC.01\State=1-A\HF=-489
 .87124\MP2=-491.7756476\RMSD=7.916e-09\PG=C01 [X(C4H8N2O3)]\\@
 The archive entry for this job was punched.


 What some people mistake for the high cost
 of living is really the cost of living high.
                              -- Doug Larson
 Job cpu time:       2 days 17 hours 44 minutes 43.9 seconds.
 Elapsed time:       0 days  1 hours  2 minutes 28.8 seconds.
 File lengths (MBytes):  RWF= 262254 Int=      0 D2E=      0 Chk=     52 Scr=      2
 Normal termination of Gaussian 16 at Wed Jan 27 22:34:49 2021.
