 Entering Gaussian System, Link 0=g16
 Input=pII_CCSDT-jun-cc-pVTZ.gjf
 Output=pII_CCSDT-jun-cc-pVTZ.log
 Initial command:
 /home/share/software/programs/Gaussian/g16/l1.exe "/home/qr/scratch/Gau-341122.inp" -scrdir="/home/qr/scratch/"
 Entering Link 1 = /home/share/software/programs/Gaussian/g16/l1.exe PID=    341123.
  
 Copyright (c) 1988-2019, Gaussian, Inc.  All Rights Reserved.
  
 This is part of the Gaussian(R) 16 program.  It is based on
 the Gaussian(R) 09 system (copyright 2009, Gaussian, Inc.),
 the Gaussian(R) 03 system (copyright 2003, Gaussian, Inc.),
 the Gaussian(R) 98 system (copyright 1998, Gaussian, Inc.),
 the Gaussian(R) 94 system (copyright 1995, Gaussian, Inc.),
 the Gaussian 92(TM) system (copyright 1992, Gaussian, Inc.),
 the Gaussian 90(TM) system (copyright 1990, Gaussian, Inc.),
 the Gaussian 88(TM) system (copyright 1988, Gaussian, Inc.),
 the Gaussian 86(TM) system (copyright 1986, Carnegie Mellon
 University), and the Gaussian 82(TM) system (copyright 1983,
 Carnegie Mellon University). Gaussian is a federally registered
 trademark of Gaussian, Inc.
  
 This software contains proprietary and confidential information,
 including trade secrets, belonging to Gaussian, Inc.
  
 This software is provided under written license and may be
 used, copied, transmitted, or stored only in accord with that
 written license.
  
 The following legend is applicable only to US Government
 contracts under FAR:
  
                    RESTRICTED RIGHTS LEGEND
  
 Use, reproduction and disclosure by the US Government is
 subject to restrictions as set forth in subparagraphs (a)
 and (c) of the Commercial Computer Software - Restricted
 Rights clause in FAR 52.227-19.
  
 Gaussian, Inc.
 340 Quinnipiac St., Bldg. 40, Wallingford CT 06492
  
  
 ---------------------------------------------------------------
 Warning -- This program may not be used in any manner that
 competes with the business of Gaussian, Inc. or will provide
 assistance to any competitor of Gaussian, Inc.  The licensee
 of this program is prohibited from giving any competitor of
 Gaussian, Inc. access to this program.  By using this program,
 the user acknowledges that Gaussian, Inc. is engaged in the
 business of creating and licensing software in the field of
 computational chemistry and represents and warrants to the
 licensee that it is not a competitor of Gaussian, Inc. and that
 it will not use this program in any manner prohibited above.
 ---------------------------------------------------------------
  

 Cite this work as:
 Gaussian 16, Revision C.01,
 M. J. Frisch, G. W. Trucks, H. B. Schlegel, G. E. Scuseria, 
 M. A. Robb, J. R. Cheeseman, G. Scalmani, V. Barone, 
 G. A. Petersson, H. Nakatsuji, X. Li, M. Caricato, A. V. Marenich, 
 J. Bloino, B. G. Janesko, R. Gomperts, B. Mennucci, H. P. Hratchian, 
 J. V. Ortiz, A. F. Izmaylov, J. L. Sonnenberg, D. Williams-Young, 
 F. Ding, F. Lipparini, F. Egidi, J. Goings, B. Peng, A. Petrone, 
 T. Henderson, D. Ranasinghe, V. G. Zakrzewski, J. Gao, N. Rega, 
 G. Zheng, W. Liang, M. Hada, M. Ehara, K. Toyota, R. Fukuda, 
 J. Hasegawa, M. Ishida, T. Nakajima, Y. Honda, O. Kitao, H. Nakai, 
 T. Vreven, K. Throssell, J. A. Montgomery, Jr., J. E. Peralta, 
 F. Ogliaro, M. J. Bearpark, J. J. Heyd, E. N. Brothers, K. N. Kudin, 
 V. N. Staroverov, T. A. Keith, R. Kobayashi, J. Normand, 
 K. Raghavachari, A. P. Rendell, J. C. Burant, S. S. Iyengar, 
 J. Tomasi, M. Cossi, J. M. Millam, M. Klene, C. Adamo, R. Cammi, 
 J. W. Ochterski, R. L. Martin, K. Morokuma, O. Farkas, 
 J. B. Foresman, and D. J. Fox, Gaussian, Inc., Wallingford CT, 2019.
 
 ******************************************
 Gaussian 16:  ES64L-G16RevC.01  3-Jul-2019
                28-Jan-2021 
 ******************************************
 %nprocshared=64
 Will use up to   64 processors via shared memory.
 %mem=60GB
 %chk=pII_CCSDT-jun-cc-pVTZ.chk
 ----------------------
 #p CCSD(T) jun-cc-pVTZ
 ----------------------
 1/38=1,172=1/1;
 2/12=2,17=6,18=5,40=1/2;
 3/5=16,6=1,7=60,11=9,25=1,30=1/1,2,3;
 4//1;
 5/5=2,38=5/2;
 8/6=4,9=120000,10=1/1,4;
 9/5=7,14=2/13;
 6/7=2,8=2,9=2,10=2/1;
 99/5=1,9=1/99;
 Leave Link    1 at Thu Jan 28 10:12:22 2021, MaxMem=  8053063680 cpu:               2.8 elap:               0.1
 (Enter /home/share/software/programs/Gaussian/g16/l101.exe)
 --
 SP
 --
 Symbolic Z-matrix:
 Charge =  0 Multiplicity = 1
 C(PDBName=CA,ResName=GLY,ResNum=1_A)
 H(PDBName=HA,ResName=GLY,ResNum=1_A) 1    B1
 H(PDBName=HB3,ResName=GLY,ResNum=1_A) 1    B2       2    A1
 C(PDBName=C,ResName=GLY,ResNum=1_A) 1    B3       3    A2       2    D1       0
 O(PDBName=O,ResName=GLY,ResNum=1_A) 4    B4       1    A3       3    D2       0
 N(PDBName=N,ResName=GLY,ResNum=2_A) 4    B5       1    A4       5    D3       0
 H(PDBName=H,ResName=GLY,ResNum=2_A) 6    B6       4    A5       1    D4       0
 C(PDBName=CA,ResName=GLY,ResNum=2_A) 6    B7       4    A6       1    D5       0
 H(PDBName=HA,ResName=GLY,ResNum=2_A) 8    B8       6    A7       4    D6       0
 H(PDBName=HB3,ResName=GLY,ResNum=2_A) 8    B9       6    A8       4    D7       0
 C(PDBName=C,ResName=GLY,ResNum=2_A) 8    B10      6    A9       4    D8       0
 O(PDBName=O,ResName=GLY,ResNum=2_A) 11   B11      8    A10      6    D9       0
 O                    11   B12      8    A11      6    D10      0
 H                    13   B13      11   A12      8    D11      0
 N                    1    B14      4    A13      5    D12      0
 H                    15   B15      1    A14      4    D13      0
 H                    15   B16      1    A15      4    D14      0
       Variables:
  B1                    1.09489                  
  B2                    1.09311                  
  B3                    1.52757                  
  B4                    1.22385                  
  B5                    1.35612                  
  B6                    1.00833                  
  B7                    1.43802                  
  B8                    1.09359                  
  B9                    1.09376                  
  B10                   1.50496                  
  B11                   1.20823                  
  B12                   1.34358                  
  B13                   0.96855                  
  B14                   1.44902                  
  B15                   1.01473                  
  B16                   1.01378                  
  A1                  106.49996                  
  A2                  109.59999                  
  A3                  122.62487                  
  A4                  115.27153                  
  A5                  121.82121                  
  A6                  121.00854                  
  A7                  111.65027                  
  A8                  111.70185                  
  A9                  109.15481                  
  A10                 124.99378                  
  A11                 111.33482                  
  A12                 106.92386                  
  A13                 114.62984                  
  A14                 108.61036                  
  A15                 109.46782                  
  D1                  115.53777                  
  D2                  139.77536                  
  D3                  178.43967                  
  D4                    2.14155                  
  D5                 -176.63674                  
  D6                  -60.26967                  
  D7                   58.6614                   
  D8                  179.22501                  
  D9                   -0.11224                  
  D10                 179.89232                  
  D11                 179.97445                  
  D12                  16.12171                  
  D13                 -48.13089                  
  D14                  66.15674                  
 
 ITRead=  0  0  0  0  0  0  0  0  0  0  0  0  0  0  0  0  0
 MicOpt= -1 -1 -1 -1 -1 -1 -1 -1 -1 -1 -1 -1 -1 -1 -1 -1 -1
 NAtoms=     17 NQM=       17 NQMF=       0 NMMI=      0 NMMIF=      0
                NMic=       0 NMicF=      0.
                    Isotopes and Nuclear Properties:
 (Nuclear quadrupole moments (NQMom) in fm**2, nuclear magnetic moments (NMagM)
  in nuclear magnetons)

  Atom         1           2           3           4           5           6           7           8           9          10
 IAtWgt=          12           1           1          12          16          14           1          12           1           1
 AtmWgt=  12.0000000   1.0078250   1.0078250  12.0000000  15.9949146  14.0030740   1.0078250  12.0000000   1.0078250   1.0078250
 NucSpn=           0           1           1           0           0           2           1           0           1           1
 AtZEff=  -0.0000000  -0.0000000  -0.0000000  -0.0000000  -0.0000000  -0.0000000  -0.0000000  -0.0000000  -0.0000000  -0.0000000
 NQMom=    0.0000000   0.0000000   0.0000000   0.0000000   0.0000000   2.0440000   0.0000000   0.0000000   0.0000000   0.0000000
 NMagM=    0.0000000   2.7928460   2.7928460   0.0000000   0.0000000   0.4037610   2.7928460   0.0000000   2.7928460   2.7928460
 AtZNuc=   6.0000000   1.0000000   1.0000000   6.0000000   8.0000000   7.0000000   1.0000000   6.0000000   1.0000000   1.0000000

  Atom        11          12          13          14          15          16          17
 IAtWgt=          12          16          16           1          14           1           1
 AtmWgt=  12.0000000  15.9949146  15.9949146   1.0078250  14.0030740   1.0078250   1.0078250
 NucSpn=           0           0           0           1           2           1           1
 AtZEff=  -0.0000000  -0.0000000  -0.0000000  -0.0000000  -0.0000000  -0.0000000  -0.0000000
 NQMom=    0.0000000   0.0000000   0.0000000   0.0000000   2.0440000   0.0000000   0.0000000
 NMagM=    0.0000000   0.0000000   0.0000000   2.7928460   0.4037610   2.7928460   2.7928460
 AtZNuc=   6.0000000   8.0000000   8.0000000   1.0000000   7.0000000   1.0000000   1.0000000
 Center=     -0.14722805      2.18812433     -0.37668583
 Residue   0                        charge    0.00000000 layers R        AvRTP=      0.52031611    239.30236210    120.48365018
 Residue   1 PDB Number     1_A GLY charge    0.00000000 layers R        AvRTP=      1.68803314    265.26425326     81.00916728
 Residue   2 PDB Number     2_A GLY charge    0.00000000 layers R        AvRTP=      1.48551614     79.84831116     89.99579466
 Residue   3                        charge    0.00000000 layers R        AvRTP=      0.00000000      0.00000000      0.00000000
 Leave Link  101 at Thu Jan 28 10:12:22 2021, MaxMem=  8053063680 cpu:              16.3 elap:               0.3
 (Enter /home/share/software/programs/Gaussian/g16/l202.exe)
                          Input orientation:                          
 ---------------------------------------------------------------------
 Center     Atomic      Atomic             Coordinates (Angstroms)
 Number     Number       Type             X           Y           Z
 ---------------------------------------------------------------------
      1          6           0        0.000000    0.000000    0.000000
      2          1           0        0.000000    0.000000    1.094889
      3          1           0        1.048092    0.000000   -0.310458
      4          6           0       -0.667522    1.298463   -0.449302
      5          8           0       -1.804971    1.334155   -0.899559
      6          7           0        0.077303    2.419628   -0.284084
      7          1           0        1.017308    2.384714    0.079091
      8          6           0       -0.457126    3.717077   -0.598572
      9          1           0       -0.743289    3.791178   -1.651450
     10          1           0       -1.358613    3.934584   -0.018637
     11          6           0        0.581285    4.764576   -0.299637
     12          8           0        1.685342    4.540932    0.137250
     13          8           0        0.127069    5.997391   -0.580824
     14          1           0        0.840347    6.616443   -0.366106
     15          7           0       -0.646442   -1.206927   -0.474431
     16          1           0       -1.642999   -1.130909   -0.298998
     17          1           0       -0.558660   -1.263191   -1.482832
 ---------------------------------------------------------------------
                    Distance matrix (angstroms):
                    1          2          3          4          5
     1  C    0.000000
     2  H    1.094889   0.000000
     3  H    1.093106   1.753139   0.000000
     4  C    1.527568   2.125116   2.156064   0.000000
     5  O    2.418077   3.002618   3.204212   1.223845   0.000000
     6  N    2.437474   2.786062   2.607245   1.356124   2.258322
     7  H    2.593845   2.784533   2.416518   2.073112   3.166495
     8  C    3.792613   4.110162   4.020615   2.432333   2.754196
     9  H    4.201523   4.740030   4.402310   2.768488   2.780192
    10  H    4.162586   4.308912   4.621508   2.759024   2.781634
    11  C    4.809247   4.998378   4.787401   3.687256   4.221601
    12  O    4.845542   4.937359   4.607233   4.048904   4.851874
    13  O    6.026791   6.228392   6.073721   4.767453   5.057682
    14  H    6.679636   6.827738   6.619938   5.528246   5.931682
    15  N    1.449015   2.082625   2.086865   2.505604   2.824893
    16  H    2.016878   2.433376   2.919084   2.622211   2.542331
    17  H    2.026461   2.924449   2.356218   2.764436   2.939338
                    6          7          8          9         10
     6  N    0.000000
     7  H    1.008327   0.000000
     8  C    1.438016   2.099612   0.000000
     9  H    2.103381   2.841234   1.093587   0.000000
    10  H    2.104141   2.838423   1.093761   1.750790   0.000000
    11  C    2.398546   2.448937   1.504963   2.128238   2.128627
    12  O    2.695041   2.258081   2.410464   3.108026   3.107672
    13  O    3.590393   3.778816   2.354025   2.602141   2.603552
    14  H    4.266406   4.258761   3.184934   3.484557   3.485475
    15  N    3.702963   3.996791   4.929205   5.135738   5.210572
    16  H    3.945373   4.424905   4.999900   5.183198   5.081209
    17  H    3.924870   4.269718   5.059179   5.060550   5.458998
                   11         12         13         14         15
    11  C    0.000000
    12  O    1.208233   0.000000
    13  O    1.343582   2.250582   0.000000
    14  H    1.871081   2.296765   0.968553   0.000000
    15  N    6.098911   6.232917   7.246505   7.964132   0.000000
    16  H    6.301125   6.590747   7.350186   8.135906   1.014731
    17  H    6.247672   6.430246   7.348463   8.080405   1.013778
                   16         17
    16  H    0.000000
    17  H    1.610823   0.000000
 Stoichiometry    C4H8N2O3
 Framework group  C1[X(C4H8N2O3)]
 Deg. of freedom    45
 Full point group                 C1      NOp   1
 Largest Abelian subgroup         C1      NOp   1
 Largest concise Abelian subgroup C1      NOp   1
                         Standard orientation:                         
 ---------------------------------------------------------------------
 Center     Atomic      Atomic             Coordinates (Angstroms)
 Number     Number       Type             X           Y           Z
 ---------------------------------------------------------------------
      1          6           0        2.417194    0.810573    0.145998
      2          1           0        2.397196    1.209411    1.165464
      3          1           0        2.180801    1.645528   -0.518719
      4          6           0        1.316434   -0.244629    0.054681
      5          8           0        1.552638   -1.445429    0.045526
      6          7           0        0.050733    0.240841    0.017368
      7          1           0       -0.139037    1.231149    0.016258
      8          6           0       -1.082242   -0.644639    0.003808
      9          1           0       -1.069005   -1.303441   -0.868967
     10          1           0       -1.096219   -1.297019    0.881600
     11          6           0       -2.346529    0.171426   -0.019204
     12          8           0       -2.391939    1.378799   -0.023237
     13          8           0       -3.435763   -0.615045   -0.034876
     14          1           0       -4.206630   -0.028814   -0.048741
     15          7           0        3.749249    0.320461   -0.145660
     16          1           0        3.902256   -0.533909    0.380002
     17          1           0        3.802127    0.044999   -1.119862
 ---------------------------------------------------------------------
 Rotational constants (GHZ):           5.0205626           0.6715059           0.5996705
 Leave Link  202 at Thu Jan 28 10:12:22 2021, MaxMem=  8053063680 cpu:               0.9 elap:               0.1
 (Enter /home/share/software/programs/Gaussian/g16/l301.exe)
 Standard basis: Jun-CC-pVTZ (5D, 7F)
 Ernie: Thresh=  0.10000D-02 Tol=  0.10000D-05 Strict=F.
 Ernie:  27 primitive shells out of 325 were deleted.
 There are   525 symmetry adapted cartesian basis functions of A   symmetry.
 There are   463 symmetry adapted basis functions of A   symmetry.
   463 basis functions,   694 primitive gaussians,   525 cartesian basis functions
    35 alpha electrons       35 beta electrons
       nuclear repulsion energy       449.7259243624 Hartrees.
 IExCor=    0 DFT=F Ex=HF Corr=None ExCW=0 ScaHFX=  1.000000
 ScaDFX=  1.000000  1.000000  1.000000  1.000000 ScalE2=  1.000000  1.000000
 IRadAn=      5 IRanWt=     -1 IRanGd=            0 ICorTp=0 IEmpDi=  4
 NAtoms=   17 NActive=   17 NUniq=   17 SFac= 1.00D+00 NAtFMM=   60 NAOKFM=F Big=F
 Integral buffers will be    131072 words long.
 Raffenetti 1 integral format.
 Two-electron integral symmetry is turned on.
 Leave Link  301 at Thu Jan 28 10:12:22 2021, MaxMem=  8053063680 cpu:               4.8 elap:               0.1
 (Enter /home/share/software/programs/Gaussian/g16/l302.exe)
 NPDir=0 NMtPBC=     1 NCelOv=     1 NCel=       1 NClECP=     1 NCelD=      1
         NCelK=      1 NCelE2=     1 NClLst=     1 CellRange=     0.0.
 One-electron integrals computed using PRISM.
 One-electron integral symmetry used in STVInt
 NBasis=   463 RedAO= T EigKep=  1.92D-05  NBF=   463
 NBsUse=   463 1.00D-06 EigRej= -1.00D+00 NBFU=   463
 Leave Link  302 at Thu Jan 28 10:12:23 2021, MaxMem=  8053063680 cpu:              33.0 elap:               0.6
 (Enter /home/share/software/programs/Gaussian/g16/l303.exe)
 DipDrv:  MaxL=1.
 Leave Link  303 at Thu Jan 28 10:12:23 2021, MaxMem=  8053063680 cpu:               6.5 elap:               0.1
 (Enter /home/share/software/programs/Gaussian/g16/l401.exe)
 ExpMin= 3.57D-02 ExpMax= 1.53D+04 ExpMxC= 5.22D+02 IAcc=3 IRadAn=         5 AccDes= 0.00D+00
 Harris functional with IExCor=  205 and IRadAn=       5 diagonalized for initial guess.
 HarFok:  IExCor=  205 AccDes= 0.00D+00 IRadAn=         5 IDoV= 1 UseB2=F ITyADJ=14
 ICtDFT=  3500011 ScaDFX=  1.000000  1.000000  1.000000  1.000000
 FoFCou: FMM=F IPFlag=           0 FMFlag=      100000 FMFlg1=           0
         NFxFlg=           0 DoJE=T BraDBF=F KetDBF=T FulRan=T
         wScrn=  0.000000 ICntrl=       500 IOpCl=  0 I1Cent=   200000004 NGrid=           0
         NMat0=    1 NMatS0=      1 NMatT0=    0 NMatD0=    1 NMtDS0=    0 NMtDT0=    0
 Petite list used in FoFCou.
 Harris En= -490.317700610950    
 JPrj=0 DoOrth=F DoCkMO=F.
 Leave Link  401 at Thu Jan 28 10:12:24 2021, MaxMem=  8053063680 cpu:              55.8 elap:               1.0
 (Enter /home/share/software/programs/Gaussian/g16/l502.exe)
 Integral symmetry usage will be decided dynamically.
 Closed shell SCF:
 Using DIIS extrapolation, IDIIS=  1040.
 NGot=  8053063680 LenX=  8052473968 LenY=  8052197818
 Requested convergence on RMS density matrix=1.00D-08 within 128 cycles.
 Requested convergence on MAX density matrix=1.00D-06.
 Requested convergence on             energy=1.00D-06.
 No special actions if energy rises.
 Fock matrices will be formed incrementally for  20 cycles.

 Cycle   1  Pass 1  IDiag  1:
 FoFJK:  IHMeth= 1 ICntrl=       0 DoSepK=F KAlg= 0 I1Cent=           0 FoldK=F
 IRaf= 920000000 NMat=       1 IRICut=       1 DoRegI=T DoRafI=F ISym2E= 0 IDoP0=0 IntGTp=1.
 FoFCou: FMM=F IPFlag=           0 FMFlag=      100000 FMFlg1=           0
         NFxFlg=           0 DoJE=F BraDBF=F KetDBF=F FulRan=T
         wScrn=  0.000000 ICntrl=         0 IOpCl=  0 I1Cent=           0 NGrid=           0
         NMat0=    1 NMatS0=      1 NMatT0=    0 NMatD0=    1 NMtDS0=    0 NMtDT0=    0
 Symmetry not used in FoFCou.
 E= -489.446559735839    
 DIIS: error= 2.01D-02 at cycle   1 NSaved=   1.
 NSaved= 1 IEnMin= 1 EnMin= -489.446559735839     IErMin= 1 ErrMin= 2.01D-02
 ErrMax= 2.01D-02  0.00D+00 EMaxC= 1.00D-01 BMatC= 9.83D-01 BMatP= 9.83D-01
 IDIUse=3 WtCom= 7.99D-01 WtEn= 2.01D-01
 Coeff-Com:  0.100D+01
 Coeff-En:   0.100D+01
 Coeff:      0.100D+01
 Gap=     0.530 Goal=   None    Shift=    0.000
 GapD=    0.530 DampG=2.000 DampE=0.500 DampFc=1.0000 IDamp=-1.
 RMSDP=1.47D-03 MaxDP=5.59D-02              OVMax= 1.37D-01

 Cycle   2  Pass 1  IDiag  1:
 RMSU=  1.46D-03    CP:  9.77D-01
 E= -489.755723123074     Delta-E=       -0.309163387235 Rises=F Damp=F
 DIIS: error= 9.35D-03 at cycle   2 NSaved=   2.
 NSaved= 2 IEnMin= 2 EnMin= -489.755723123074     IErMin= 2 ErrMin= 9.35D-03
 ErrMax= 9.35D-03  0.00D+00 EMaxC= 1.00D-01 BMatC= 1.29D-01 BMatP= 9.83D-01
 IDIUse=3 WtCom= 9.07D-01 WtEn= 9.35D-02
 Coeff-Com:  0.191D+00 0.809D+00
 Coeff-En:   0.000D+00 0.100D+01
 Coeff:      0.173D+00 0.827D+00
 Gap=     0.472 Goal=   None    Shift=    0.000
 RMSDP=6.42D-04 MaxDP=3.43D-02 DE=-3.09D-01 OVMax= 5.66D-02

 Cycle   3  Pass 1  IDiag  1:
 RMSU=  5.51D-04    CP:  9.80D-01  7.75D-01
 E= -489.829195498141     Delta-E=       -0.073472375067 Rises=F Damp=F
 DIIS: error= 4.68D-03 at cycle   3 NSaved=   3.
 NSaved= 3 IEnMin= 3 EnMin= -489.829195498141     IErMin= 3 ErrMin= 4.68D-03
 ErrMax= 4.68D-03  0.00D+00 EMaxC= 1.00D-01 BMatC= 2.06D-02 BMatP= 1.29D-01
 IDIUse=3 WtCom= 9.53D-01 WtEn= 4.68D-02
 Coeff-Com: -0.232D-01 0.258D+00 0.765D+00
 Coeff-En:   0.000D+00 0.000D+00 0.100D+01
 Coeff:     -0.221D-01 0.246D+00 0.776D+00
 Gap=     0.461 Goal=   None    Shift=    0.000
 RMSDP=1.78D-04 MaxDP=9.43D-03 DE=-7.35D-02 OVMax= 2.83D-02

 Cycle   4  Pass 1  IDiag  1:
 RMSU=  1.41D-04    CP:  9.79D-01  8.33D-01  8.76D-01
 E= -489.842116099976     Delta-E=       -0.012920601834 Rises=F Damp=F
 DIIS: error= 1.07D-03 at cycle   4 NSaved=   4.
 NSaved= 4 IEnMin= 4 EnMin= -489.842116099976     IErMin= 4 ErrMin= 1.07D-03
 ErrMax= 1.07D-03  0.00D+00 EMaxC= 1.00D-01 BMatC= 7.51D-04 BMatP= 2.06D-02
 IDIUse=3 WtCom= 9.89D-01 WtEn= 1.07D-02
 Coeff-Com: -0.115D-01 0.532D-01 0.239D+00 0.719D+00
 Coeff-En:   0.000D+00 0.000D+00 0.000D+00 0.100D+01
 Coeff:     -0.114D-01 0.526D-01 0.237D+00 0.722D+00
 Gap=     0.444 Goal=   None    Shift=    0.000
 RMSDP=3.98D-05 MaxDP=1.71D-03 DE=-1.29D-02 OVMax= 5.11D-03

 Cycle   5  Pass 1  IDiag  1:
 RMSU=  3.78D-05    CP:  9.80D-01  8.35D-01  8.91D-01  9.38D-01
 E= -489.842797509086     Delta-E=       -0.000681409111 Rises=F Damp=F
 DIIS: error= 3.73D-04 at cycle   5 NSaved=   5.
 NSaved= 5 IEnMin= 5 EnMin= -489.842797509086     IErMin= 5 ErrMin= 3.73D-04
 ErrMax= 3.73D-04  0.00D+00 EMaxC= 1.00D-01 BMatC= 4.90D-05 BMatP= 7.51D-04
 IDIUse=3 WtCom= 9.96D-01 WtEn= 3.73D-03
 Coeff-Com:  0.236D-02-0.248D-01-0.835D-01-0.547D-02 0.111D+01
 Coeff-En:   0.000D+00 0.000D+00 0.000D+00 0.000D+00 0.100D+01
 Coeff:      0.235D-02-0.247D-01-0.832D-01-0.545D-02 0.111D+01
 Gap=     0.445 Goal=   None    Shift=    0.000
 RMSDP=2.47D-05 MaxDP=9.61D-04 DE=-6.81D-04 OVMax= 4.86D-03

 Cycle   6  Pass 1  IDiag  1:
 RMSU=  1.23D-05    CP:  9.80D-01  8.33D-01  9.01D-01  1.06D+00  1.28D+00
 E= -489.842908573100     Delta-E=       -0.000111064013 Rises=F Damp=F
 DIIS: error= 7.19D-05 at cycle   6 NSaved=   6.
 NSaved= 6 IEnMin= 6 EnMin= -489.842908573100     IErMin= 6 ErrMin= 7.19D-05
 ErrMax= 7.19D-05  0.00D+00 EMaxC= 1.00D-01 BMatC= 8.30D-06 BMatP= 4.90D-05
 IDIUse=1 WtCom= 1.00D+00 WtEn= 0.00D+00
 Coeff-Com:  0.168D-02-0.114D-01-0.426D-01-0.901D-01 0.225D+00 0.917D+00
 Coeff:      0.168D-02-0.114D-01-0.426D-01-0.901D-01 0.225D+00 0.917D+00
 Gap=     0.446 Goal=   None    Shift=    0.000
 RMSDP=9.17D-06 MaxDP=3.43D-04 DE=-1.11D-04 OVMax= 1.53D-03

 Cycle   7  Pass 1  IDiag  1:
 RMSU=  4.82D-06    CP:  9.80D-01  8.32D-01  9.05D-01  1.10D+00  1.40D+00
                    CP:  1.22D+00
 E= -489.842924724260     Delta-E=       -0.000016151160 Rises=F Damp=F
 DIIS: error= 3.38D-05 at cycle   7 NSaved=   7.
 NSaved= 7 IEnMin= 7 EnMin= -489.842924724260     IErMin= 7 ErrMin= 3.38D-05
 ErrMax= 3.38D-05  0.00D+00 EMaxC= 1.00D-01 BMatC= 1.04D-06 BMatP= 8.30D-06
 IDIUse=1 WtCom= 1.00D+00 WtEn= 0.00D+00
 Coeff-Com: -0.290D-03 0.323D-02 0.134D-01-0.621D-02-0.136D+00-0.453D-01
 Coeff-Com:  0.117D+01
 Coeff:     -0.290D-03 0.323D-02 0.134D-01-0.621D-02-0.136D+00-0.453D-01
 Coeff:      0.117D+01
 Gap=     0.446 Goal=   None    Shift=    0.000
 RMSDP=3.90D-06 MaxDP=1.71D-04 DE=-1.62D-05 OVMax= 9.01D-04

 Cycle   8  Pass 1  IDiag  1:
 RMSU=  1.81D-06    CP:  9.80D-01  8.32D-01  9.06D-01  1.10D+00  1.45D+00
                    CP:  1.40D+00  1.41D+00
 E= -489.842927631710     Delta-E=       -0.000002907451 Rises=F Damp=F
 DIIS: error= 1.17D-05 at cycle   8 NSaved=   8.
 NSaved= 8 IEnMin= 8 EnMin= -489.842927631710     IErMin= 8 ErrMin= 1.17D-05
 ErrMax= 1.17D-05  0.00D+00 EMaxC= 1.00D-01 BMatC= 1.31D-07 BMatP= 1.04D-06
 IDIUse=1 WtCom= 1.00D+00 WtEn= 0.00D+00
 Coeff-Com: -0.200D-03 0.135D-02 0.529D-02 0.764D-02-0.160D-01-0.109D+00
 Coeff-Com: -0.624D-01 0.117D+01
 Coeff:     -0.200D-03 0.135D-02 0.529D-02 0.764D-02-0.160D-01-0.109D+00
 Coeff:     -0.624D-01 0.117D+01
 Gap=     0.446 Goal=   None    Shift=    0.000
 RMSDP=1.47D-06 MaxDP=6.48D-05 DE=-2.91D-06 OVMax= 3.06D-04

 Cycle   9  Pass 1  IDiag  1:
 RMSU=  5.67D-07    CP:  9.80D-01  8.32D-01  9.06D-01  1.10D+00  1.46D+00
                    CP:  1.45D+00  1.59D+00  1.38D+00
 E= -489.842928005391     Delta-E=       -0.000000373680 Rises=F Damp=F
 DIIS: error= 4.56D-06 at cycle   9 NSaved=   9.
 NSaved= 9 IEnMin= 9 EnMin= -489.842928005391     IErMin= 9 ErrMin= 4.56D-06
 ErrMax= 4.56D-06  0.00D+00 EMaxC= 1.00D-01 BMatC= 1.95D-08 BMatP= 1.31D-07
 IDIUse=1 WtCom= 1.00D+00 WtEn= 0.00D+00
 Coeff-Com: -0.351D-05-0.142D-03-0.627D-03 0.122D-02 0.150D-01-0.147D-01
 Coeff-Com: -0.161D+00 0.215D+00 0.946D+00
 Coeff:     -0.351D-05-0.142D-03-0.627D-03 0.122D-02 0.150D-01-0.147D-01
 Coeff:     -0.161D+00 0.215D+00 0.946D+00
 Gap=     0.446 Goal=   None    Shift=    0.000
 RMSDP=4.57D-07 MaxDP=2.59D-05 DE=-3.74D-07 OVMax= 8.77D-05

 Cycle  10  Pass 1  IDiag  1:
 RMSU=  2.09D-07    CP:  9.80D-01  8.32D-01  9.06D-01  1.10D+00  1.46D+00
                    CP:  1.45D+00  1.63D+00  1.54D+00  1.23D+00
 E= -489.842928046296     Delta-E=       -0.000000040905 Rises=F Damp=F
 DIIS: error= 1.97D-06 at cycle  10 NSaved=  10.
 NSaved=10 IEnMin=10 EnMin= -489.842928046296     IErMin=10 ErrMin= 1.97D-06
 ErrMax= 1.97D-06  0.00D+00 EMaxC= 1.00D-01 BMatC= 2.58D-09 BMatP= 1.95D-08
 IDIUse=1 WtCom= 1.00D+00 WtEn= 0.00D+00
 Coeff-Com:  0.312D-04-0.243D-03-0.874D-03-0.145D-02 0.481D-02 0.161D-01
 Coeff-Com: -0.421D-02-0.168D+00 0.977D-01 0.106D+01
 Coeff:      0.312D-04-0.243D-03-0.874D-03-0.145D-02 0.481D-02 0.161D-01
 Coeff:     -0.421D-02-0.168D+00 0.977D-01 0.106D+01
 Gap=     0.446 Goal=   None    Shift=    0.000
 RMSDP=1.76D-07 MaxDP=9.04D-06 DE=-4.09D-08 OVMax= 2.65D-05

 Cycle  11  Pass 1  IDiag  1:
 RMSU=  8.23D-08    CP:  9.80D-01  8.32D-01  9.06D-01  1.10D+00  1.46D+00
                    CP:  1.45D+00  1.63D+00  1.59D+00  1.40D+00  1.22D+00
 E= -489.842928051670     Delta-E=       -0.000000005374 Rises=F Damp=F
 DIIS: error= 5.70D-07 at cycle  11 NSaved=  11.
 NSaved=11 IEnMin=11 EnMin= -489.842928051670     IErMin=11 ErrMin= 5.70D-07
 ErrMax= 5.70D-07  0.00D+00 EMaxC= 1.00D-01 BMatC= 3.08D-10 BMatP= 2.58D-09
 IDIUse=1 WtCom= 1.00D+00 WtEn= 0.00D+00
 Coeff-Com:  0.754D-05-0.445D-04-0.111D-03-0.492D-03-0.378D-03 0.468D-02
 Coeff-Com:  0.154D-01-0.558D-01-0.778D-01 0.194D+00 0.921D+00
 Coeff:      0.754D-05-0.445D-04-0.111D-03-0.492D-03-0.378D-03 0.468D-02
 Coeff:      0.154D-01-0.558D-01-0.778D-01 0.194D+00 0.921D+00
 Gap=     0.446 Goal=   None    Shift=    0.000
 RMSDP=4.98D-08 MaxDP=2.78D-06 DE=-5.37D-09 OVMax= 6.12D-06

 Cycle  12  Pass 1  IDiag  1:
 RMSU=  2.66D-08    CP:  9.80D-01  8.32D-01  9.06D-01  1.10D+00  1.46D+00
                    CP:  1.45D+00  1.63D+00  1.59D+00  1.43D+00  1.34D+00
                    CP:  1.23D+00
 E= -489.842928052128     Delta-E=       -0.000000000458 Rises=F Damp=F
 DIIS: error= 2.08D-07 at cycle  12 NSaved=  12.
 NSaved=12 IEnMin=12 EnMin= -489.842928052128     IErMin=12 ErrMin= 2.08D-07
 ErrMax= 2.08D-07  0.00D+00 EMaxC= 1.00D-01 BMatC= 3.93D-11 BMatP= 3.08D-10
 IDIUse=1 WtCom= 1.00D+00 WtEn= 0.00D+00
 Coeff-Com: -0.251D-05 0.222D-04 0.102D-03 0.837D-04-0.757D-03-0.125D-02
 Coeff-Com:  0.389D-02 0.121D-01-0.284D-01-0.116D+00 0.196D+00 0.933D+00
 Coeff:     -0.251D-05 0.222D-04 0.102D-03 0.837D-04-0.757D-03-0.125D-02
 Coeff:      0.389D-02 0.121D-01-0.284D-01-0.116D+00 0.196D+00 0.933D+00
 Gap=     0.446 Goal=   None    Shift=    0.000
 RMSDP=1.84D-08 MaxDP=7.36D-07 DE=-4.58D-10 OVMax= 2.39D-06

 Cycle  13  Pass 1  IDiag  1:
 RMSU=  1.06D-08    CP:  9.80D-01  8.32D-01  9.06D-01  1.10D+00  1.46D+00
                    CP:  1.45D+00  1.64D+00  1.59D+00  1.43D+00  1.36D+00
                    CP:  1.37D+00  1.18D+00
 E= -489.842928052241     Delta-E=       -0.000000000113 Rises=F Damp=F
 DIIS: error= 6.60D-08 at cycle  13 NSaved=  13.
 NSaved=13 IEnMin=13 EnMin= -489.842928052241     IErMin=13 ErrMin= 6.60D-08
 ErrMax= 6.60D-08  0.00D+00 EMaxC= 1.00D-01 BMatC= 2.72D-12 BMatP= 3.93D-11
 IDIUse=1 WtCom= 1.00D+00 WtEn= 0.00D+00
 Coeff-Com: -0.836D-06 0.535D-05 0.161D-04 0.521D-04-0.820D-05-0.478D-03
 Coeff-Com: -0.142D-02 0.642D-02 0.692D-02-0.292D-01-0.775D-01 0.726D-01
 Coeff-Com:  0.102D+01
 Coeff:     -0.836D-06 0.535D-05 0.161D-04 0.521D-04-0.820D-05-0.478D-03
 Coeff:     -0.142D-02 0.642D-02 0.692D-02-0.292D-01-0.775D-01 0.726D-01
 Coeff:      0.102D+01
 Gap=     0.446 Goal=   None    Shift=    0.000
 RMSDP=6.14D-09 MaxDP=2.40D-07 DE=-1.13D-10 OVMax= 7.84D-07

 SCF Done:  E(RHF) =  -489.842928052     A.U. after   13 cycles
            NFock= 13  Conv=0.61D-08     -V/T= 2.0016
 KE= 4.890565693991D+02 PE=-2.051277531548D+03 EE= 6.226521097339D+02
 Leave Link  502 at Thu Jan 28 10:12:55 2021, MaxMem=  8053063680 cpu:            1946.4 elap:              30.5
 (Enter /home/share/software/programs/Gaussian/g16/l801.exe)
 Windowed orbitals will be sorted by symmetry type.
 ExpMin= 3.57D-02 ExpMax= 1.53D+04 ExpMxC= 5.22D+02 IAcc=3 IRadAn=         5 AccDes= 0.00D+00
 HarFok:  IExCor=  205 AccDes= 0.00D+00 IRadAn=         5 IDoV=-2 UseB2=F ITyADJ=14
 ICtDFT= 12500011 ScaDFX=  1.000000  1.000000  1.000000  1.000000
 Largest valence mixing into a core orbital is  2.06D-04
 Largest core mixing into a valence orbital is  3.08D-05
 Range of M.O.s used for correlation:    10   463
 NBasis=   463 NAE=    35 NBE=    35 NFC=     9 NFV=     0
 NROrb=    454 NOA=    26 NOB=    26 NVA=   428 NVB=   428

 **** Warning!!: The largest alpha MO coefficient is  0.49587046D+02

 Leave Link  801 at Thu Jan 28 10:12:55 2021, MaxMem=  8053063680 cpu:              15.1 elap:               0.3
 (Enter /home/share/software/programs/Gaussian/g16/l804.exe)
 Closed-shell transformation, MDV=  8053063680 ITran=4 ISComp=1.
 Unit  1 TFree=      11187401 TCopy=       3338117.
 Semi-Direct transformation.
 ModeAB=           4 MOrb=            26 LenV=    8047973015
 LASXX=   1174054193 LTotXX=  1174054193 LenRXX=  2355756780
 LTotAB=  1181702587 MaxLAS=  1435378204 LenRXY=           0
 NonZer=  3529810973 LenScr=  7060193280 LnRSAI=  1435378204
 LnScr1=  2153512960 LExtra=           0 Total=  13004841224
 MaxDsk=          -1 SrtSym=           T ITran=            4
 DoSDTr:  NPSUse= 64
 JobTyp=0 Pass  1:  I=   1 to  26.
 (rs|ai) integrals will be sorted in core.
 Complete sort for first half transformation.
 First half transformation complete.
 Begin second half transformation for I=  10.
 Begin second half transformation for I=  20.
 Complete sort for second half transformation.
 Second half transformation complete.
 SymMOI:  orbitals are not symmetric.
 Spin components of T(2) and E(2):
     alpha-alpha T2 =       0.6499422300D-01 E2=     -0.2257211477D+00
     alpha-beta  T2 =       0.3547060910D+00 E2=     -0.1325659664D+01
     beta-beta   T2 =       0.6499422300D-01 E2=     -0.2257211477D+00
 ANorm=    0.1218480421D+01
 E2 =    -0.1777101960D+01 EUMP2 =    -0.49162003001175D+03
 Leave Link  804 at Thu Jan 28 10:20:38 2021, MaxMem=  8053063680 cpu:           29520.7 elap:             461.9
 (Enter /home/share/software/programs/Gaussian/g16/l913.exe)
 CIDS:  MDV=  8053063680.
 Frozen-core window:  NFC=   9 NFV=   0.
 IFCWin=0 IBDFC=1 NFBD=     0     0 NFCmp=     0     0 NFFFC=     0     0
 Using DD3R+UMP44R for 1st iteration.
 Using DD4RQ for 2nd and later iterations.
 Two-electron integrals replicated using symmetry.
 CIDS: In Core Option IDoMem=           1.
 CCSD(T)
 =======
 Iterations=  50 Convergence= 0.100D-06
 Produce multiple copies of IABC intergrals
 Iteration Nr.   1
 **********************
 DD1Dir will call FoFJK   4 times, MxPair=       176
 NAB=   351 NAA=     0 NBB=     0 NumPrc= 64.
 DD1Dir:  Pass   1 NRAB=    88 NRAA=     0 NRBB=     0 NR=   176.
 FoFJK:  IHMeth= 1 ICntrl=     200 DoSepK=F KAlg= 0 I1Cent=           0 FoldK=F
 IRaf= 920000000 NMat=     176 IRICut=     220 DoRegI=T DoRafI=T ISym2E= 2 IDoP0=3 IntGTp=3.
 FoFCou: FMM=F IPFlag=           0 FMFlag=      100000 FMFlg1=           0
         NFxFlg=           0 DoJE=F BraDBF=F KetDBF=F FulRan=T
         wScrn=  0.000000 ICntrl=       200 IOpCl=  0 I1Cent=           0 NGrid=           0
         NMat0=  176 NMatS0=      0 NMatT0=   88 NMatD0=  176 NMtDS0=    0 NMtDT0=    0
 Integrals replicated using symmetry in FoFCou.
 Raff kept on since  91.12% of shell-pairs survive, threshold=   0.20 IRatSp=91.
 DD1Dir:  Pass   2 NRAB=    88 NRAA=     0 NRBB=     0 NR=   176.
 DD1Dir:  Pass   3 NRAB=    88 NRAA=     0 NRBB=     0 NR=   176.
 DD1Dir:  Pass   4 NRAB=    87 NRAA=     0 NRBB=     0 NR=   174.
 MP4(R+Q)=  0.41114928D-01
 Maximum subspace dimension=  5
 A-vector RMS=  1.7162725D-03 Max=  2.0313812D-02 conv= 1.00D-05.
 RLE energy=       -1.7515150161
 E3=       -0.16107769D-01        EUMP3=      -0.49163613778D+03
 E4(DQ)=    0.43176354D-02        UMP4(DQ)=   -0.49163182015D+03
 E4(SDQ)=  -0.16650863D-01        UMP4(SDQ)=  -0.49165278864D+03
 VARIATIONAL ENERGIES WITH THE FIRST-ORDER WAVEFUNCTION:
 DE(Corr)=  -1.7511417     E(Corr)=     -491.59406979    
 NORM(A)=   0.12170359D+01
 Iteration Nr.   2
 **********************
 DD1Dir will call FoFJK   4 times, MxPair=       176
 NAB=   351 NAA=     0 NBB=     0 NumPrc= 64.
 DD1Dir:  Pass   1 NRAB=    88 NRAA=     0 NRBB=     0 NR=   176.
 DD1Dir:  Pass   2 NRAB=    88 NRAA=     0 NRBB=     0 NR=   176.
 DD1Dir:  Pass   3 NRAB=    88 NRAA=     0 NRBB=     0 NR=   176.
 DD1Dir:  Pass   4 NRAB=    87 NRAA=     0 NRBB=     0 NR=   174.
 A-vector RMS=  2.5674354D-04 Max=  4.9004132D-03 conv= 1.00D-05.
 RLE energy=       -1.8011094853
 DE(Corr)=  -1.8009139     E(CORR)=     -491.64384198     Delta=-4.98D-02
 NORM(A)=   0.12329807D+01
 Iteration Nr.   3
 **********************
 DD1Dir will call FoFJK   4 times, MxPair=       176
 NAB=   351 NAA=     0 NBB=     0 NumPrc= 64.
 DD1Dir:  Pass   1 NRAB=    88 NRAA=     0 NRBB=     0 NR=   176.
 DD1Dir:  Pass   2 NRAB=    88 NRAA=     0 NRBB=     0 NR=   176.
 DD1Dir:  Pass   3 NRAB=    88 NRAA=     0 NRBB=     0 NR=   176.
 DD1Dir:  Pass   4 NRAB=    87 NRAA=     0 NRBB=     0 NR=   174.
 A-vector RMS=  3.3303448D-04 Max=  5.0531731D-03 conv= 1.00D-05.
 RLE energy=       -1.8038765894
 DE(Corr)=  -1.7995408     E(CORR)=     -491.64246883     Delta= 1.37D-03
 NORM(A)=   0.12374236D+01
 Iteration Nr.   4
 **********************
 DD1Dir will call FoFJK   4 times, MxPair=       176
 NAB=   351 NAA=     0 NBB=     0 NumPrc= 64.
 DD1Dir:  Pass   1 NRAB=    88 NRAA=     0 NRBB=     0 NR=   176.
 DD1Dir:  Pass   2 NRAB=    88 NRAA=     0 NRBB=     0 NR=   176.
 DD1Dir:  Pass   3 NRAB=    88 NRAA=     0 NRBB=     0 NR=   176.
 DD1Dir:  Pass   4 NRAB=    87 NRAA=     0 NRBB=     0 NR=   174.
 A-vector RMS=  6.1731789D-05 Max=  8.3041481D-04 conv= 1.00D-05.
 RLE energy=       -1.8041669933
 DE(Corr)=  -1.8038182     E(CORR)=     -491.64674629     Delta=-4.28D-03
 NORM(A)=   0.12388196D+01
 Iteration Nr.   5
 **********************
 DD1Dir will call FoFJK   4 times, MxPair=       176
 NAB=   351 NAA=     0 NBB=     0 NumPrc= 64.
 DD1Dir:  Pass   1 NRAB=    88 NRAA=     0 NRBB=     0 NR=   176.
 DD1Dir:  Pass   2 NRAB=    88 NRAA=     0 NRBB=     0 NR=   176.
 DD1Dir:  Pass   3 NRAB=    88 NRAA=     0 NRBB=     0 NR=   176.
 DD1Dir:  Pass   4 NRAB=    87 NRAA=     0 NRBB=     0 NR=   174.
 A-vector RMS=  3.5380411D-05 Max=  5.1043880D-04 conv= 1.00D-05.
 RLE energy=       -1.8043787589
 DE(Corr)=  -1.8042990     E(CORR)=     -491.64722701     Delta=-4.81D-04
 NORM(A)=   0.12392845D+01
 Iteration Nr.   6
 **********************
 DD1Dir will call FoFJK   4 times, MxPair=       176
 NAB=   351 NAA=     0 NBB=     0 NumPrc= 64.
 DD1Dir:  Pass   1 NRAB=    88 NRAA=     0 NRBB=     0 NR=   176.
 DD1Dir:  Pass   2 NRAB=    88 NRAA=     0 NRBB=     0 NR=   176.
 DD1Dir:  Pass   3 NRAB=    88 NRAA=     0 NRBB=     0 NR=   176.
 DD1Dir:  Pass   4 NRAB=    87 NRAA=     0 NRBB=     0 NR=   174.
 A-vector RMS=  1.2125895D-05 Max=  2.0235374D-04 conv= 1.00D-05.
 RLE energy=       -1.8043702802
 DE(Corr)=  -1.8043432     E(CORR)=     -491.64727122     Delta=-4.42D-05
 NORM(A)=   0.12393557D+01
 Iteration Nr.   7
 **********************
 DD1Dir will call FoFJK   4 times, MxPair=       176
 NAB=   351 NAA=     0 NBB=     0 NumPrc= 64.
 DD1Dir:  Pass   1 NRAB=    88 NRAA=     0 NRBB=     0 NR=   176.
 DD1Dir:  Pass   2 NRAB=    88 NRAA=     0 NRBB=     0 NR=   176.
 DD1Dir:  Pass   3 NRAB=    88 NRAA=     0 NRBB=     0 NR=   176.
 DD1Dir:  Pass   4 NRAB=    87 NRAA=     0 NRBB=     0 NR=   174.
 A-vector RMS=  4.1885122D-06 Max=  5.8723592D-05 conv= 1.00D-05.
 RLE energy=       -1.8043186770
 DE(Corr)=  -1.8043458     E(CORR)=     -491.64727384     Delta=-2.61D-06
 NORM(A)=   0.12393556D+01
 Iteration Nr.   8
 **********************
 DD1Dir will call FoFJK   4 times, MxPair=       176
 NAB=   351 NAA=     0 NBB=     0 NumPrc= 64.
 DD1Dir:  Pass   1 NRAB=    88 NRAA=     0 NRBB=     0 NR=   176.
 DD1Dir:  Pass   2 NRAB=    88 NRAA=     0 NRBB=     0 NR=   176.
 DD1Dir:  Pass   3 NRAB=    88 NRAA=     0 NRBB=     0 NR=   176.
 DD1Dir:  Pass   4 NRAB=    87 NRAA=     0 NRBB=     0 NR=   174.
 A-vector RMS=  1.4861446D-06 Max=  2.3342141D-05 conv= 1.00D-05.
 RLE energy=       -1.8043428758
 DE(Corr)=  -1.8043449     E(CORR)=     -491.64727295     Delta= 8.89D-07
 NORM(A)=   0.12393645D+01
 Iteration Nr.   9
 **********************
 DD1Dir will call FoFJK   4 times, MxPair=       176
 NAB=   351 NAA=     0 NBB=     0 NumPrc= 64.
 DD1Dir:  Pass   1 NRAB=    88 NRAA=     0 NRBB=     0 NR=   176.
 DD1Dir:  Pass   2 NRAB=    88 NRAA=     0 NRBB=     0 NR=   176.
 DD1Dir:  Pass   3 NRAB=    88 NRAA=     0 NRBB=     0 NR=   176.
 DD1Dir:  Pass   4 NRAB=    87 NRAA=     0 NRBB=     0 NR=   174.
 A-vector RMS=  6.1033762D-07 Max=  1.1589110D-05 conv= 1.00D-05.
 RLE energy=       -1.8043411849
 DE(Corr)=  -1.8043416     E(CORR)=     -491.64726966     Delta= 3.29D-06
 NORM(A)=   0.12393648D+01
 Iteration Nr.  10
 **********************
 DD1Dir will call FoFJK   4 times, MxPair=       176
 NAB=   351 NAA=     0 NBB=     0 NumPrc= 64.
 DD1Dir:  Pass   1 NRAB=    88 NRAA=     0 NRBB=     0 NR=   176.
 DD1Dir:  Pass   2 NRAB=    88 NRAA=     0 NRBB=     0 NR=   176.
 DD1Dir:  Pass   3 NRAB=    88 NRAA=     0 NRBB=     0 NR=   176.
 DD1Dir:  Pass   4 NRAB=    87 NRAA=     0 NRBB=     0 NR=   174.
 A-vector RMS=  2.2411264D-07 Max=  4.7622939D-06 conv= 1.00D-05.
 RLE energy=       -1.8043431757
 DE(Corr)=  -1.8043435     E(CORR)=     -491.64727159     Delta=-1.94D-06
 NORM(A)=   0.12393655D+01
 Iteration Nr.  11
 **********************
 DD1Dir will call FoFJK   4 times, MxPair=       176
 NAB=   351 NAA=     0 NBB=     0 NumPrc= 64.
 DD1Dir:  Pass   1 NRAB=    88 NRAA=     0 NRBB=     0 NR=   176.
 DD1Dir:  Pass   2 NRAB=    88 NRAA=     0 NRBB=     0 NR=   176.
 DD1Dir:  Pass   3 NRAB=    88 NRAA=     0 NRBB=     0 NR=   176.
 DD1Dir:  Pass   4 NRAB=    87 NRAA=     0 NRBB=     0 NR=   174.
 A-vector RMS=  1.2625251D-07 Max=  2.6380945D-06 conv= 1.00D-05.
 RLE energy=       -1.8043438545
 DE(Corr)=  -1.8043435     E(CORR)=     -491.64727160     Delta=-1.75D-09
 NORM(A)=   0.12393661D+01
 CI/CC converged in   11 iterations to DelEn=-1.75D-09 Conv= 1.00D-07 ErrA1= 1.26D-07 Conv= 1.00D-05
 Wavefunction amplitudes converged. E(Corr)=     -491.64727160    
 Largest amplitude= 2.96D-02
 T4(AAA)= -0.25325713D-02
 T4(AAB)= -0.39545008D-01
 T5(AAA)=  0.15667572D-03
 T5(AAB)=  0.17959310D-02
 Time for triples=  1801313.03 seconds.
 T4(CCSD)= -0.84155158D-01
 T5(CCSD)=  0.39052134D-02
 CCSD(T)= -0.49172752154D+03
 Discarding MO integrals.
 Leave Link  913 at Thu Jan 28 19:33:31 2021, MaxMem=  8053063680 cpu:         2093264.2 elap:           33006.6
 (Enter /home/share/software/programs/Gaussian/g16/l601.exe)
 Copying SCF densities to generalized density rwf, IOpCl= 0 IROHF=0.

 **********************************************************************

            Population analysis using the SCF Density.

 **********************************************************************

 Orbital symmetries:
       Occupied  (A) (A) (A) (A) (A) (A) (A) (A) (A) (A) (A) (A)
                 (A) (A) (A) (A) (A) (A) (A) (A) (A) (A) (A) (A)
                 (A) (A) (A) (A) (A) (A) (A) (A) (A) (A) (A)
       Virtual   (A) (A) (A) (A) (A) (A) (A) (A) (A) (A) (A) (A)
                 (A) (A) (A) (A) (A) (A) (A) (A) (A) (A) (A) (A)
                 (A) (A) (A) (A) (A) (A) (A) (A) (A) (A) (A) (A)
                 (A) (A) (A) (A) (A) (A) (A) (A) (A) (A) (A) (A)
                 (A) (A) (A) (A) (A) (A) (A) (A) (A) (A) (A) (A)
                 (A) (A) (A) (A) (A) (A) (A) (A) (A) (A) (A) (A)
                 (A) (A) (A) (A) (A) (A) (A) (A) (A) (A) (A) (A)
                 (A) (A) (A) (A) (A) (A) (A) (A) (A) (A) (A) (A)
                 (A) (A) (A) (A) (A) (A) (A) (A) (A) (A) (A) (A)
                 (A) (A) (A) (A) (A) (A) (A) (A) (A) (A) (A) (A)
                 (A) (A) (A) (A) (A) (A) (A) (A) (A) (A) (A) (A)
                 (A) (A) (A) (A) (A) (A) (A) (A) (A) (A) (A) (A)
                 (A) (A) (A) (A) (A) (A) (A) (A) (A) (A) (A) (A)
                 (A) (A) (A) (A) (A) (A) (A) (A) (A) (A) (A) (A)
                 (A) (A) (A) (A) (A) (A) (A) (A) (A) (A) (A) (A)
                 (A) (A) (A) (A) (A) (A) (A) (A) (A) (A) (A) (A)
                 (A) (A) (A) (A) (A) (A) (A) (A) (A) (A) (A) (A)
                 (A) (A) (A) (A) (A) (A) (A) (A) (A) (A) (A) (A)
                 (A) (A) (A) (A) (A) (A) (A) (A) (A) (A) (A) (A)
                 (A) (A) (A) (A) (A) (A) (A) (A) (A) (A) (A) (A)
                 (A) (A) (A) (A) (A) (A) (A) (A) (A) (A) (A) (A)
                 (A) (A) (A) (A) (A) (A) (A) (A) (A) (A) (A) (A)
                 (A) (A) (A) (A) (A) (A) (A) (A) (A) (A) (A) (A)
                 (A) (A) (A) (A) (A) (A) (A) (A) (A) (A) (A) (A)
                 (A) (A) (A) (A) (A) (A) (A) (A) (A) (A) (A) (A)
                 (A) (A) (A) (A) (A) (A) (A) (A) (A) (A) (A) (A)
                 (A) (A) (A) (A) (A) (A) (A) (A) (A) (A) (A) (A)
                 (A) (A) (A) (A) (A) (A) (A) (A) (A) (A) (A) (A)
                 (A) (A) (A) (A) (A) (A) (A) (A) (A) (A) (A) (A)
                 (A) (A) (A) (A) (A) (A) (A) (A) (A) (A) (A) (A)
                 (A) (A) (A) (A) (A) (A) (A) (A) (A) (A) (A) (A)
                 (A) (A) (A) (A) (A) (A) (A) (A) (A) (A) (A) (A)
                 (A) (A) (A) (A) (A) (A) (A) (A) (A) (A) (A) (A)
                 (A) (A) (A) (A) (A) (A) (A) (A) (A) (A) (A) (A)
                 (A) (A) (A) (A) (A) (A) (A) (A) (A) (A) (A) (A)
                 (A) (A) (A) (A) (A) (A) (A) (A)
 The electronic state is 1-A.
 Alpha  occ. eigenvalues --  -20.63672 -20.57558 -20.52881 -15.59702 -15.54670
 Alpha  occ. eigenvalues --  -11.41200 -11.35416 -11.29914 -11.27248  -1.49178
 Alpha  occ. eigenvalues --   -1.39303  -1.38744  -1.24981  -1.18952  -1.03810
 Alpha  occ. eigenvalues --   -0.94319  -0.84348  -0.80939  -0.73390  -0.72542
 Alpha  occ. eigenvalues --   -0.69355  -0.68264  -0.67443  -0.65949  -0.62060
 Alpha  occ. eigenvalues --   -0.60606  -0.59292  -0.57842  -0.55960  -0.51190
 Alpha  occ. eigenvalues --   -0.50668  -0.48385  -0.44797  -0.41003  -0.40257
 Alpha virt. eigenvalues --    0.04343   0.05110   0.06027   0.06293   0.07131
 Alpha virt. eigenvalues --    0.08056   0.08623   0.09935   0.10328   0.10564
 Alpha virt. eigenvalues --    0.12345   0.12680   0.12970   0.14288   0.14777
 Alpha virt. eigenvalues --    0.15395   0.17014   0.17415   0.17630   0.18480
 Alpha virt. eigenvalues --    0.19154   0.20648   0.20987   0.21221   0.21593
 Alpha virt. eigenvalues --    0.22161   0.22948   0.23206   0.24032   0.24982
 Alpha virt. eigenvalues --    0.25083   0.26188   0.26582   0.27038   0.28576
 Alpha virt. eigenvalues --    0.29413   0.29914   0.30996   0.31439   0.31657
 Alpha virt. eigenvalues --    0.32704   0.33829   0.35401   0.36340   0.37515
 Alpha virt. eigenvalues --    0.38149   0.38643   0.38971   0.39703   0.41391
 Alpha virt. eigenvalues --    0.41537   0.41788   0.42509   0.43187   0.43857
 Alpha virt. eigenvalues --    0.44604   0.46906   0.48002   0.48850   0.50031
 Alpha virt. eigenvalues --    0.50480   0.51631   0.52204   0.52894   0.54377
 Alpha virt. eigenvalues --    0.55173   0.55345   0.56476   0.58254   0.59073
 Alpha virt. eigenvalues --    0.60056   0.60620   0.60979   0.62936   0.63591
 Alpha virt. eigenvalues --    0.64275   0.64565   0.65092   0.66480   0.66701
 Alpha virt. eigenvalues --    0.67991   0.68447   0.69282   0.70088   0.71716
 Alpha virt. eigenvalues --    0.74140   0.75049   0.76155   0.76811   0.77502
 Alpha virt. eigenvalues --    0.78821   0.80757   0.81152   0.81387   0.82157
 Alpha virt. eigenvalues --    0.83007   0.83079   0.83926   0.85677   0.85876
 Alpha virt. eigenvalues --    0.86126   0.87195   0.88394   0.89787   0.90080
 Alpha virt. eigenvalues --    0.91552   0.92007   0.93539   0.94689   0.95543
 Alpha virt. eigenvalues --    0.97272   0.97548   0.98909   1.00128   1.01737
 Alpha virt. eigenvalues --    1.02251   1.04245   1.05180   1.05667   1.07724
 Alpha virt. eigenvalues --    1.08581   1.09788   1.11201   1.12671   1.14938
 Alpha virt. eigenvalues --    1.15617   1.16453   1.18901   1.20362   1.21456
 Alpha virt. eigenvalues --    1.23142   1.24853   1.25991   1.27683   1.29312
 Alpha virt. eigenvalues --    1.30733   1.31404   1.33605   1.34271   1.35061
 Alpha virt. eigenvalues --    1.35700   1.37253   1.38569   1.40153   1.41738
 Alpha virt. eigenvalues --    1.42045   1.42993   1.43616   1.45022   1.46896
 Alpha virt. eigenvalues --    1.48876   1.49378   1.50222   1.50561   1.52374
 Alpha virt. eigenvalues --    1.53717   1.54261   1.55242   1.57134   1.58505
 Alpha virt. eigenvalues --    1.59265   1.61283   1.62633   1.63463   1.65283
 Alpha virt. eigenvalues --    1.66422   1.67342   1.68818   1.69141   1.69974
 Alpha virt. eigenvalues --    1.72645   1.75207   1.76494   1.77530   1.79897
 Alpha virt. eigenvalues --    1.81997   1.85275   1.86952   1.88708   1.90881
 Alpha virt. eigenvalues --    1.94828   1.96049   1.99024   2.01415   2.03553
 Alpha virt. eigenvalues --    2.04296   2.07935   2.09522   2.15090   2.15454
 Alpha virt. eigenvalues --    2.17095   2.17909   2.18867   2.23953   2.25039
 Alpha virt. eigenvalues --    2.26060   2.28145   2.34817   2.40272   2.42418
 Alpha virt. eigenvalues --    2.43327   2.44238   2.46269   2.48632   2.51010
 Alpha virt. eigenvalues --    2.59113   2.60630   2.62591   2.62910   2.66318
 Alpha virt. eigenvalues --    2.71983   2.78311   2.80477   2.84688   2.88368
 Alpha virt. eigenvalues --    2.89053   2.92314   2.95092   2.99045   3.01347
 Alpha virt. eigenvalues --    3.07391   3.09188   3.11171   3.14814   3.16059
 Alpha virt. eigenvalues --    3.18276   3.19482   3.21709   3.23292   3.24555
 Alpha virt. eigenvalues --    3.27011   3.27767   3.30623   3.31779   3.32163
 Alpha virt. eigenvalues --    3.33341   3.36187   3.36580   3.39901   3.41646
 Alpha virt. eigenvalues --    3.42565   3.43589   3.46484   3.48259   3.50550
 Alpha virt. eigenvalues --    3.51073   3.53463   3.54900   3.55506   3.57820
 Alpha virt. eigenvalues --    3.58803   3.59840   3.60109   3.61512   3.62210
 Alpha virt. eigenvalues --    3.64575   3.65294   3.66427   3.67811   3.69037
 Alpha virt. eigenvalues --    3.70693   3.71558   3.73198   3.73960   3.74248
 Alpha virt. eigenvalues --    3.75941   3.79540   3.81930   3.82081   3.83875
 Alpha virt. eigenvalues --    3.84676   3.86133   3.87666   3.89534   3.90433
 Alpha virt. eigenvalues --    3.91989   3.93297   3.95341   3.97261   3.98485
 Alpha virt. eigenvalues --    3.99591   4.01608   4.02677   4.03611   4.05127
 Alpha virt. eigenvalues --    4.08855   4.09948   4.10066   4.16381   4.18442
 Alpha virt. eigenvalues --    4.20030   4.23248   4.23808   4.26720   4.27593
 Alpha virt. eigenvalues --    4.28399   4.28609   4.30711   4.32475   4.34602
 Alpha virt. eigenvalues --    4.36348   4.36803   4.38058   4.40535   4.44438
 Alpha virt. eigenvalues --    4.45775   4.47487   4.47872   4.49286   4.51057
 Alpha virt. eigenvalues --    4.53263   4.57544   4.58108   4.59033   4.63395
 Alpha virt. eigenvalues --    4.64306   4.65124   4.68902   4.71283   4.74126
 Alpha virt. eigenvalues --    4.75229   4.76645   4.78179   4.78765   4.78806
 Alpha virt. eigenvalues --    4.82702   4.84196   4.87141   4.88146   4.90157
 Alpha virt. eigenvalues --    4.92951   4.98620   5.00690   5.03481   5.06023
 Alpha virt. eigenvalues --    5.09239   5.15330   5.19938   5.21339   5.22223
 Alpha virt. eigenvalues --    5.25909   5.27442   5.29562   5.30684   5.31928
 Alpha virt. eigenvalues --    5.35615   5.41603   5.43124   5.44661   5.46279
 Alpha virt. eigenvalues --    5.48984   5.53136   5.56770   5.59096   5.59730
 Alpha virt. eigenvalues --    5.60836   5.61866   5.64567   5.65624   5.67914
 Alpha virt. eigenvalues --    5.69293   5.70345   5.73156   5.78171   5.83396
 Alpha virt. eigenvalues --    5.84243   5.85664   5.87333   5.88545   5.92957
 Alpha virt. eigenvalues --    6.01853   6.03163   6.04208   6.07146   6.08780
 Alpha virt. eigenvalues --    6.10966   6.12338   6.21306   6.23360   6.26605
 Alpha virt. eigenvalues --    6.29949   6.33024   6.38943   6.44298   6.45960
 Alpha virt. eigenvalues --    6.50601   6.51623   6.55319   6.56781   6.59823
 Alpha virt. eigenvalues --    6.61546   6.74121   6.75602   6.76419   6.80772
 Alpha virt. eigenvalues --    6.96220   6.99297   7.04783   7.06559   7.10887
 Alpha virt. eigenvalues --    7.20585   7.21994   7.24804   7.26610   7.33627
 Alpha virt. eigenvalues --    7.34505   7.35695   7.37243   7.39802   7.41261
 Alpha virt. eigenvalues --    7.46826   7.57412   7.61741   7.70025   7.74196
 Alpha virt. eigenvalues --    7.75974   7.78657   7.95853   8.12982  11.86149
 Alpha virt. eigenvalues --   12.39737  13.85054  13.99892  14.03954  14.38226
 Alpha virt. eigenvalues --   14.61780  14.94229  15.06567
          Condensed to atoms (all electrons):
               1          2          3          4          5          6
     1  C    5.119649   0.434371   0.452285   0.204266  -0.056795  -0.061059
     2  H    0.434371   0.437694  -0.010835  -0.023394   0.002167  -0.003888
     3  H    0.452285  -0.010835   0.439897  -0.025117   0.002132  -0.010238
     4  C    0.204266  -0.023394  -0.025117   5.065752   0.462322   0.338428
     5  O   -0.056795   0.002167   0.002132   0.462322   8.321368  -0.122234
     6  N   -0.061059  -0.003888  -0.010238   0.338428  -0.122234   6.256267
     7  H   -0.005307  -0.000559  -0.001981  -0.021167   0.000798   0.414615
     8  C    0.005917  -0.000110  -0.001695  -0.158529   0.002937   0.283306
     9  H    0.000112  -0.000019   0.000061  -0.007549   0.004093  -0.034946
    10  H    0.000442   0.000065  -0.000025  -0.009311   0.005490  -0.031143
    11  C   -0.004374  -0.000242  -0.001153  -0.068502   0.002876  -0.066597
    12  O    0.001364  -0.000015   0.000011   0.015053  -0.000230  -0.014042
    13  O   -0.000061   0.000008   0.000028   0.008678  -0.000845   0.017097
    14  H    0.000116  -0.000000   0.000000  -0.000121  -0.000041   0.002360
    15  N    0.101061  -0.053875  -0.053251  -0.002922  -0.032952   0.022430
    16  H    0.032483   0.000519   0.005444  -0.005809  -0.005481  -0.008409
    17  H    0.044357   0.005182  -0.001303  -0.012671   0.002206  -0.007657
               7          8          9         10         11         12
     1  C   -0.005307   0.005917   0.000112   0.000442  -0.004374   0.001364
     2  H   -0.000559  -0.000110  -0.000019   0.000065  -0.000242  -0.000015
     3  H   -0.001981  -0.001695   0.000061  -0.000025  -0.001153   0.000011
     4  C   -0.021167  -0.158529  -0.007549  -0.009311  -0.068502   0.015053
     5  O    0.000798   0.002937   0.004093   0.005490   0.002876  -0.000230
     6  N    0.414615   0.283306  -0.034946  -0.031143  -0.066597  -0.014042
     7  H    0.441602  -0.016777   0.002179   0.002062  -0.002430   0.002336
     8  C   -0.016777   5.105867   0.424441   0.421542   0.223040  -0.008829
     9  H    0.002179   0.424441   0.411476  -0.009190  -0.020590   0.000818
    10  H    0.002062   0.421542  -0.009190   0.411754  -0.020199   0.000562
    11  C   -0.002430   0.223040  -0.020590  -0.020199   4.789582   0.492797
    12  O    0.002336  -0.008829   0.000818   0.000562   0.492797   8.164334
    13  O   -0.000262  -0.082347  -0.001938  -0.001606   0.290305  -0.132009
    14  H    0.000039   0.014915   0.000084   0.000068  -0.024428  -0.002976
    15  N    0.001316   0.004314   0.000066  -0.000019   0.001254  -0.000242
    16  H   -0.000042  -0.001684   0.000000   0.000004  -0.000225  -0.000002
    17  H   -0.000083  -0.001577   0.000002   0.000004  -0.000186   0.000000
              13         14         15         16         17
     1  C   -0.000061   0.000116   0.101061   0.032483   0.044357
     2  H    0.000008  -0.000000  -0.053875   0.000519   0.005182
     3  H    0.000028   0.000000  -0.053251   0.005444  -0.001303
     4  C    0.008678  -0.000121  -0.002922  -0.005809  -0.012671
     5  O   -0.000845  -0.000041  -0.032952  -0.005481   0.002206
     6  N    0.017097   0.002360   0.022430  -0.008409  -0.007657
     7  H   -0.000262   0.000039   0.001316  -0.000042  -0.000083
     8  C   -0.082347   0.014915   0.004314  -0.001684  -0.001577
     9  H   -0.001938   0.000084   0.000066   0.000000   0.000002
    10  H   -0.001606   0.000068  -0.000019   0.000004   0.000004
    11  C    0.290305  -0.024428   0.001254  -0.000225  -0.000186
    12  O   -0.132009  -0.002976  -0.000242  -0.000002   0.000000
    13  O    7.944560   0.268150  -0.000028   0.000002   0.000003
    14  H    0.268150   0.515265  -0.000002  -0.000000   0.000000
    15  N   -0.000028  -0.000002   6.811536   0.311552   0.282968
    16  H    0.000002  -0.000000   0.311552   0.533601  -0.033749
    17  H    0.000003   0.000000   0.282968  -0.033749   0.565733
 Mulliken charges:
               1
     1  C   -0.268828
     2  H    0.212931
     3  H    0.205740
     4  C    0.240593
     5  O   -0.587811
     6  N    0.025712
     7  H    0.183661
     8  C   -0.214731
     9  H    0.230901
    10  H    0.229501
    11  C    0.409069
    12  O   -0.518930
    13  O   -0.309735
    14  H    0.226569
    15  N   -0.393206
    16  H    0.171794
    17  H    0.156771
 Sum of Mulliken charges =  -0.00000
 Mulliken charges with hydrogens summed into heavy atoms:
               1
     1  C    0.149843
     4  C    0.240593
     5  O   -0.587811
     6  N    0.209372
     8  C    0.245671
    11  C    0.409069
    12  O   -0.518930
    13  O   -0.083166
    15  N   -0.064641
 Electronic spatial extent (au):  <R**2>=           1768.2827
 Charge=             -0.0000 electrons
 Dipole moment (field-independent basis, Debye):
    X=             -2.6737    Y=              0.8260    Z=             -0.2839  Tot=              2.8127
 Quadrupole moment (field-independent basis, Debye-Ang):
   XX=            -52.9714   YY=            -61.1737   ZZ=            -50.1511
   XY=              3.1312   XZ=             -1.2392   YZ=             -0.0475
 Traceless Quadrupole moment (field-independent basis, Debye-Ang):
   XX=              1.7940   YY=             -6.4083   ZZ=              4.6143
   XY=              3.1312   XZ=             -1.2392   YZ=             -0.0475
 Octapole moment (field-independent basis, Debye-Ang**2):
  XXX=           -101.1183  YYY=              3.3061  ZZZ=             -1.6256  XYY=             -0.0267
  XXY=            -17.5280  XXZ=             -6.4369  XZZ=              2.2949  YZZ=             -1.1047
  YYZ=             -0.1484  XYZ=             -0.5309
 Hexadecapole moment (field-independent basis, Debye-Ang**3):
 XXXX=          -1748.1349 YYYY=           -296.3250 ZZZZ=            -63.4920 XXXY=           -135.1086
 XXXZ=            -20.4983 YYYX=             18.8168 YYYZ=             -0.8428 ZZZX=             -6.1267
 ZZZY=              0.4046 XXYY=           -416.5377 XXZZ=           -290.3885 YYZZ=            -56.0015
 XXYZ=             -3.0809 YYXZ=             -0.0898 ZZXY=             -0.5973
 N-N= 4.497259243624D+02 E-N=-2.051277531506D+03  KE= 4.890565693991D+02
 Leave Link  601 at Thu Jan 28 19:33:41 2021, MaxMem=  8053063680 cpu:              34.3 elap:               8.5
 (Enter /home/share/software/programs/Gaussian/g16/l9999.exe)
 Unable to Open any file for archive entry.
 1\1\GINC-CU39\SP\RCCSD(T)-FC\Jun-CC-pVTZ\C4H8N2O3\ROOT\28-Jan-2021\0\\
 #p CCSD(T) jun-cc-pVTZ\\SP\\0,1\C\H,1,1.09488931\H,1,1.09310576,2,106.
 49995918\C,1,1.52756755,3,109.59998617,2,115.53776918,0\O,4,1.22384508
 ,1,122.62486549,3,139.77536454,0\N,4,1.35612404,1,115.27152907,5,178.4
 396696,0\H,6,1.00832724,4,121.82120742,1,2.14154729,0\C,6,1.43801636,4
 ,121.00853942,1,-176.63673655,0\H,8,1.09358653,6,111.6502716,4,-60.269
 671,0\H,8,1.09376132,6,111.70185133,4,58.66140379,0\C,8,1.50496287,6,1
 09.15481289,4,179.22500935,0\O,11,1.20823338,8,124.99377992,6,-0.11223
 596,0\O,11,1.34358213,8,111.3348152,6,179.89231861,0\H,13,0.96855302,1
 1,106.92386148,8,179.97445301,0\N,1,1.44901507,4,114.62983856,5,16.121
 71092,0\H,15,1.01473138,1,108.61035506,4,-48.13089303,0\H,15,1.0137775
 6,1,109.46781964,4,66.15674133,0\\Version=ES64L-G16RevC.01\State=1-A\H
 F=-489.8429281\MP2=-491.62003\MP3=-491.6361378\MP4D=-491.6729351\MP4DQ
 =-491.6318201\MP4SDQ=-491.6527886\CCSD=-491.6472716\CCSD(T)=-491.72752
 15\RMSD=6.140e-09\PG=C01 [X(C4H8N2O3)]\\@
 The archive entry for this job was punched.


 IN THE WOODS WE RETURN TO REASON AND FAITH.

                                 -- EMERSON
 Job cpu time:      24 days 14 hours 15 minutes 32.0 seconds.
 Elapsed time:       0 days  9 hours 18 minutes 30.8 seconds.
 File lengths (MBytes):  RWF= 136406 Int=      0 D2E=      0 Chk=     16 Scr=      2
 Normal termination of Gaussian 16 at Thu Jan 28 19:33:51 2021.
