 Entering Gaussian System, Link 0=g16
 Input=ccc_Best_geom_MP2_cc-pVQZ.gjf
 Output=ccc_Best_geom_MP2_cc-pVQZ.log
 Initial command:
 /data2/software/Gaussian/g16_c01-gpu/g16/l1.exe "/home/shuchong/scratch/Gau-16498.inp" -scrdir="/home/shuchong/scratch/"
 Entering Link 1 = /data2/software/Gaussian/g16_c01-gpu/g16/l1.exe PID=     16499.
  
 Copyright (c) 1988-2019, Gaussian, Inc.  All Rights Reserved.
  
 This is part of the Gaussian(R) 16 program.  It is based on
 the Gaussian(R) 09 system (copyright 2009, Gaussian, Inc.),
 the Gaussian(R) 03 system (copyright 2003, Gaussian, Inc.),
 the Gaussian(R) 98 system (copyright 1998, Gaussian, Inc.),
 the Gaussian(R) 94 system (copyright 1995, Gaussian, Inc.),
 the Gaussian 92(TM) system (copyright 1992, Gaussian, Inc.),
 the Gaussian 90(TM) system (copyright 1990, Gaussian, Inc.),
 the Gaussian 88(TM) system (copyright 1988, Gaussian, Inc.),
 the Gaussian 86(TM) system (copyright 1986, Carnegie Mellon
 University), and the Gaussian 82(TM) system (copyright 1983,
 Carnegie Mellon University). Gaussian is a federally registered
 trademark of Gaussian, Inc.
  
 This software contains proprietary and confidential information,
 including trade secrets, belonging to Gaussian, Inc.
  
 This software is provided under written license and may be
 used, copied, transmitted, or stored only in accord with that
 written license.
  
 The following legend is applicable only to US Government
 contracts under FAR:
  
                    RESTRICTED RIGHTS LEGEND
  
 Use, reproduction and disclosure by the US Government is
 subject to restrictions as set forth in subparagraphs (a)
 and (c) of the Commercial Computer Software - Restricted
 Rights clause in FAR 52.227-19.
  
 Gaussian, Inc.
 340 Quinnipiac St., Bldg. 40, Wallingford CT 06492
  
  
 ---------------------------------------------------------------
 Warning -- This program may not be used in any manner that
 competes with the business of Gaussian, Inc. or will provide
 assistance to any competitor of Gaussian, Inc.  The licensee
 of this program is prohibited from giving any competitor of
 Gaussian, Inc. access to this program.  By using this program,
 the user acknowledges that Gaussian, Inc. is engaged in the
 business of creating and licensing software in the field of
 computational chemistry and represents and warrants to the
 licensee that it is not a competitor of Gaussian, Inc. and that
 it will not use this program in any manner prohibited above.
 ---------------------------------------------------------------
  

 Cite this work as:
 Gaussian 16, Revision C.01,
 M. J. Frisch, G. W. Trucks, H. B. Schlegel, G. E. Scuseria, 
 M. A. Robb, J. R. Cheeseman, G. Scalmani, V. Barone, 
 G. A. Petersson, H. Nakatsuji, X. Li, M. Caricato, A. V. Marenich, 
 J. Bloino, B. G. Janesko, R. Gomperts, B. Mennucci, H. P. Hratchian, 
 J. V. Ortiz, A. F. Izmaylov, J. L. Sonnenberg, D. Williams-Young, 
 F. Ding, F. Lipparini, F. Egidi, J. Goings, B. Peng, A. Petrone, 
 T. Henderson, D. Ranasinghe, V. G. Zakrzewski, J. Gao, N. Rega, 
 G. Zheng, W. Liang, M. Hada, M. Ehara, K. Toyota, R. Fukuda, 
 J. Hasegawa, M. Ishida, T. Nakajima, Y. Honda, O. Kitao, H. Nakai, 
 T. Vreven, K. Throssell, J. A. Montgomery, Jr., J. E. Peralta, 
 F. Ogliaro, M. J. Bearpark, J. J. Heyd, E. N. Brothers, K. N. Kudin, 
 V. N. Staroverov, T. A. Keith, R. Kobayashi, J. Normand, 
 K. Raghavachari, A. P. Rendell, J. C. Burant, S. S. Iyengar, 
 J. Tomasi, M. Cossi, J. M. Millam, M. Klene, C. Adamo, R. Cammi, 
 J. W. Ochterski, R. L. Martin, K. Morokuma, O. Farkas, 
 J. B. Foresman, and D. J. Fox, Gaussian, Inc., Wallingford CT, 2019.
 
 ******************************************
 Gaussian 16:  AM64L-G16RevC.01  3-Jul-2019
                15-Jan-2021 
 ******************************************
 %chk=ccc_Best_geom_MP2_cc-pVQZ.chk
 %nprocshared=12
 Will use up to   12 processors via shared memory.
 %mem=100GB
 --------------
 #p MP2 cc-pVQZ
 --------------
 1/38=1,172=1/1;
 2/12=2,17=6,18=5,40=1/2;
 3/5=16,6=2,11=9,25=1,30=1/1,2,3;
 4//1;
 5/5=2,38=5/2;
 8/10=1/1;
 9/16=-3/6;
 6/7=2,8=2,9=2,10=2/1;
 99/5=1,9=1/99;
 Leave Link    1 at Fri Jan 15 17:58:59 2021, MaxMem= 13421772800 cpu:               1.3 elap:               0.1
 (Enter /data2/software/Gaussian/g16_c01-gpu/g16/l101.exe)
 --------------------------
 start best geom PCCP paper
 --------------------------
 Symbolic Z-matrix:
 Charge =  0 Multiplicity = 1
 N
 H                    1    B1
 C                    1    B2       2    A1
 C                    3    B3       1    A2       2    D1       0
 H                    3    B4       1    A3       4    D2       0
 H                    3    B5       1    A4       4    D3       0
 O                    4    B6       3    A5       1    D4       0
 O                    4    B7       3    A6       1    D5       0
 H                    1    B8       3    A7       4    D6       0
 H                    8    B9       4    A8       3    D7       0
       Variables:
  B1                    1.0091                   
  B2                    1.4609                   
  B3                    1.5252                   
  B4                    1.0891                   
  B5                    1.089                    
  B6                    1.2001                   
  B7                    1.3356                   
  B8                    1.008                    
  B9                    0.976                    
  A1                  112.0646                   
  A2                  111.6045                   
  A3                  110.2343                   
  A4                  113.9016                   
  A5                  122.6125                   
  A6                  114.3853                   
  A7                  112.2608                   
  A8                  105.7699                   
  D1                  101.3936                   
  D2                  117.8521                   
  D3                 -121.6454                   
  D4                 -171.93                     
  D5                    8.8971                   
  D6                 -136.9715                   
  D7                   -1.3866                   
 
 ITRead=  0  0  0  0  0  0  0  0  0  0
 MicOpt= -1 -1 -1 -1 -1 -1 -1 -1 -1 -1
 NAtoms=     10 NQM=       10 NQMF=       0 NMMI=      0 NMMIF=      0
                NMic=       0 NMicF=      0.
                    Isotopes and Nuclear Properties:
 (Nuclear quadrupole moments (NQMom) in fm**2, nuclear magnetic moments (NMagM)
  in nuclear magnetons)

  Atom         1           2           3           4           5           6           7           8           9          10
 IAtWgt=          14           1          12          12           1           1          16          16           1           1
 AtmWgt=  14.0030740   1.0078250  12.0000000  12.0000000   1.0078250   1.0078250  15.9949146  15.9949146   1.0078250   1.0078250
 NucSpn=           2           1           0           0           1           1           0           0           1           1
 AtZEff=  -0.0000000  -0.0000000  -0.0000000  -0.0000000  -0.0000000  -0.0000000  -0.0000000  -0.0000000  -0.0000000  -0.0000000
 NQMom=    2.0440000   0.0000000   0.0000000   0.0000000   0.0000000   0.0000000   0.0000000   0.0000000   0.0000000   0.0000000
 NMagM=    0.4037610   2.7928460   0.0000000   0.0000000   2.7928460   2.7928460   0.0000000   0.0000000   2.7928460   2.7928460
 AtZNuc=   7.0000000   1.0000000   6.0000000   6.0000000   1.0000000   1.0000000   8.0000000   8.0000000   1.0000000   1.0000000
 Leave Link  101 at Fri Jan 15 17:59:00 2021, MaxMem= 13421772800 cpu:               1.1 elap:               0.1
 (Enter /data2/software/Gaussian/g16_c01-gpu/g16/l202.exe)
                          Input orientation:                          
 ---------------------------------------------------------------------
 Center     Atomic      Atomic             Coordinates (Angstroms)
 Number     Number       Type             X           Y           Z
 ---------------------------------------------------------------------
      1          7           0        0.000000    0.000000    0.000000
      2          1           0        0.000000    0.000000    1.009100
      3          6           0        1.353905    0.000000   -0.548790
      4          6           0        1.769118   -1.390106   -1.019362
      5          1           0        1.405706    0.646494   -1.423719
      6          1           0        2.113699    0.344627    0.151115
      7          8           0        2.887214   -1.646392   -1.372093
      8          8           0        0.781571   -2.289312   -1.021685
      9          1           0       -0.537692    0.794255   -0.310017
     10          1           0       -0.004808   -1.820532   -0.683410
 ---------------------------------------------------------------------
                    Distance matrix (angstroms):
                    1          2          3          4          5
     1  N    0.000000
     2  H    1.009100   0.000000
     3  C    1.460900   2.063996   0.000000
     4  C    2.470076   3.029329   1.525200   0.000000
     5  H    2.102603   2.883153   1.089100   2.107916   0.000000
     6  H    2.146934   2.307082   1.089000   2.120861   1.752848
     7  O    3.595727   4.088605   2.395719   1.200100   2.730358
     8  O    2.625955   3.158463   2.406688   1.335600   3.028223
     9  H    1.008000   1.630957   2.065428   3.255146   2.244763
    10  H    1.944584   2.485749   2.275645   1.856056   2.936635
                    6          7          8          9         10
     6  H    0.000000
     7  O    2.623480   0.000000
     8  O    3.176107   2.229320   0.000000
     9  H    2.728494   4.337597   3.428602   0.000000
    10  H    3.142040   2.977986   0.976000   2.694531   0.000000
 Stoichiometry    C2H5NO2
 Framework group  C1[X(C2H5NO2)]
 Deg. of freedom    24
 Full point group                 C1      NOp   1
 Largest Abelian subgroup         C1      NOp   1
 Largest concise Abelian subgroup C1      NOp   1
                         Standard orientation:                         
 ---------------------------------------------------------------------
 Center     Atomic      Atomic             Coordinates (Angstroms)
 Number     Number       Type             X           Y           Z
 ---------------------------------------------------------------------
      1          7           0       -1.777783    0.124928   -0.048772
      2          1           0       -2.176227    0.113925   -0.975812
      3          6           0       -0.642823   -0.786994    0.071611
      4          6           0        0.686110   -0.041625    0.003814
      5          1           0       -0.662886   -1.287754    1.038553
      6          1           0       -0.617441   -1.563047   -0.691946
      7          8           0        1.742553   -0.607441   -0.059578
      8          8           0        0.574514    1.288852    0.038515
      9          1           0       -2.512293   -0.090938    0.606942
     10          1           0       -0.382931    1.473747    0.079614
 ---------------------------------------------------------------------
 Rotational constants (GHZ):          10.2054237           4.0954771           3.0305609
 Leave Link  202 at Fri Jan 15 17:59:00 2021, MaxMem= 13421772800 cpu:               0.2 elap:               0.0
 (Enter /data2/software/Gaussian/g16_c01-gpu/g16/l301.exe)
 Standard basis: CC-pVQZ (5D, 7F)
 Ernie: Thresh=  0.10000D-02 Tol=  0.10000D-05 Strict=F.
 Ernie:  15 primitive shells out of 225 were deleted.
 There are   525 symmetry adapted cartesian basis functions of A   symmetry.
 There are   425 symmetry adapted basis functions of A   symmetry.
   425 basis functions,   630 primitive gaussians,   525 cartesian basis functions
    20 alpha electrons       20 beta electrons
       nuclear repulsion energy       181.0042859132 Hartrees.
 IExCor=    0 DFT=F Ex=HF Corr=None ExCW=0 ScaHFX=  1.000000
 ScaDFX=  1.000000  1.000000  1.000000  1.000000 ScalE2=  1.000000  1.000000
 IRadAn=      5 IRanWt=     -1 IRanGd=            0 ICorTp=0 IEmpDi=  4
 NAtoms=   10 NActive=   10 NUniq=   10 SFac= 1.00D+00 NAtFMM=   60 NAOKFM=F Big=F
 Integral buffers will be    131072 words long.
 Raffenetti 1 integral format.
 Two-electron integral symmetry is turned on.
 Leave Link  301 at Fri Jan 15 17:59:00 2021, MaxMem= 13421772800 cpu:               0.5 elap:               0.1
 (Enter /data2/software/Gaussian/g16_c01-gpu/g16/l302.exe)
 NPDir=0 NMtPBC=     1 NCelOv=     1 NCel=       1 NClECP=     1 NCelD=      1
         NCelK=      1 NCelE2=     1 NClLst=     1 CellRange=     0.0.
 One-electron integrals computed using PRISM.
 One-electron integral symmetry used in STVInt
 NBasis=   425 RedAO= T EigKep=  9.73D-05  NBF=   425
 NBsUse=   425 1.00D-06 EigRej= -1.00D+00 NBFU=   425
 Leave Link  302 at Fri Jan 15 17:59:01 2021, MaxMem= 13421772800 cpu:              12.0 elap:               1.1
 (Enter /data2/software/Gaussian/g16_c01-gpu/g16/l303.exe)
 DipDrv:  MaxL=1.
 Leave Link  303 at Fri Jan 15 17:59:01 2021, MaxMem= 13421772800 cpu:               0.6 elap:               0.1
 (Enter /data2/software/Gaussian/g16_c01-gpu/g16/l401.exe)
 ExpMin= 8.99D-02 ExpMax= 6.14D+04 ExpMxC= 5.91D+02 IAcc=3 IRadAn=         5 AccDes= 0.00D+00
 Harris functional with IExCor=  205 and IRadAn=       5 diagonalized for initial guess.
 HarFok:  IExCor=  205 AccDes= 0.00D+00 IRadAn=         5 IDoV= 1 UseB2=F ITyADJ=14
 ICtDFT=  3500011 ScaDFX=  1.000000  1.000000  1.000000  1.000000
 FoFCou: FMM=F IPFlag=           0 FMFlag=      100000 FMFlg1=           0
         NFxFlg=           0 DoJE=T BraDBF=F KetDBF=T FulRan=T
         wScrn=  0.000000 ICntrl=       500 IOpCl=  0 I1Cent=   200000004 NGrid=           0
         NMat0=    1 NMatS0=      1 NMatT0=    0 NMatD0=    1 NMtDS0=    0 NMtDT0=    0
 Petite list used in FoFCou.
 Harris En= -283.252474189699    
 JPrj=0 DoOrth=F DoCkMO=F.
 Leave Link  401 at Fri Jan 15 17:59:03 2021, MaxMem= 13421772800 cpu:              25.3 elap:               2.2
 (Enter /data2/software/Gaussian/g16_c01-gpu/g16/l502.exe)
 Keep R1 ints in memory in canonical form, NReq=4170200832.
 FoFCou: FMM=F IPFlag=           0 FMFlag=           0 FMFlg1=           0
         NFxFlg=           0 DoJE=F BraDBF=F KetDBF=F FulRan=T
         wScrn=  0.000000 ICntrl=       600 IOpCl=  0 I1Cent=           0 NGrid=           0
         NMat0=    1 NMatS0=  90525 NMatT0=    0 NMatD0=    1 NMtDS0=    0 NMtDT0=    0
 Symmetry not used in FoFCou.
 Two-electron integral symmetry not used.
 Closed shell SCF:
 Using DIIS extrapolation, IDIIS=  1040.
 NGot= 13421772800 LenX=  9323777769 LenY=  9323501619
 Requested convergence on RMS density matrix=1.00D-08 within 128 cycles.
 Requested convergence on MAX density matrix=1.00D-06.
 Requested convergence on             energy=1.00D-06.
 No special actions if energy rises.

 Cycle   1  Pass 1  IDiag  1:
 E= -282.729886921445    
 DIIS: error= 2.42D-02 at cycle   1 NSaved=   1.
 NSaved= 1 IEnMin= 1 EnMin= -282.729886921445     IErMin= 1 ErrMin= 2.42D-02
 ErrMax= 2.42D-02  0.00D+00 EMaxC= 1.00D-01 BMatC= 6.44D-01 BMatP= 6.44D-01
 IDIUse=3 WtCom= 7.58D-01 WtEn= 2.42D-01
 Coeff-Com:  0.100D+01
 Coeff-En:   0.100D+01
 Coeff:      0.100D+01
 Gap=     0.576 Goal=   None    Shift=    0.000
 GapD=    0.576 DampG=2.000 DampE=0.500 DampFc=1.0000 IDamp=-1.
 RMSDP=1.18D-03 MaxDP=1.21D-01              OVMax= 1.28D-01

 Cycle   2  Pass 1  IDiag  1:
 E= -282.913979458194     Delta-E=       -0.184092536750 Rises=F Damp=F
 DIIS: error= 9.87D-03 at cycle   2 NSaved=   2.
 NSaved= 2 IEnMin= 2 EnMin= -282.913979458194     IErMin= 2 ErrMin= 9.87D-03
 ErrMax= 9.87D-03  0.00D+00 EMaxC= 1.00D-01 BMatC= 7.79D-02 BMatP= 6.44D-01
 IDIUse=3 WtCom= 9.01D-01 WtEn= 9.87D-02
 Coeff-Com:  0.184D+00 0.816D+00
 Coeff-En:   0.000D+00 0.100D+01
 Coeff:      0.166D+00 0.834D+00
 Gap=     0.551 Goal=   None    Shift=    0.000
 RMSDP=7.12D-04 MaxDP=9.09D-02 DE=-1.84D-01 OVMax= 5.22D-02

 Cycle   3  Pass 1  IDiag  1:
 E= -282.957357921437     Delta-E=       -0.043378463242 Rises=F Damp=F
 DIIS: error= 5.58D-03 at cycle   3 NSaved=   3.
 NSaved= 3 IEnMin= 3 EnMin= -282.957357921437     IErMin= 3 ErrMin= 5.58D-03
 ErrMax= 5.58D-03  0.00D+00 EMaxC= 1.00D-01 BMatC= 1.14D-02 BMatP= 7.79D-02
 IDIUse=3 WtCom= 9.44D-01 WtEn= 5.58D-02
 Coeff-Com: -0.218D-01 0.250D+00 0.772D+00
 Coeff-En:   0.000D+00 0.000D+00 0.100D+01
 Coeff:     -0.206D-01 0.236D+00 0.785D+00
 Gap=     0.515 Goal=   None    Shift=    0.000
 RMSDP=1.08D-04 MaxDP=6.32D-03 DE=-4.34D-02 OVMax= 2.61D-02

 Cycle   4  Pass 1  IDiag  1:
 E= -282.964283489792     Delta-E=       -0.006925568355 Rises=F Damp=F
 DIIS: error= 1.52D-03 at cycle   4 NSaved=   4.
 NSaved= 4 IEnMin= 4 EnMin= -282.964283489792     IErMin= 4 ErrMin= 1.52D-03
 ErrMax= 1.52D-03  0.00D+00 EMaxC= 1.00D-01 BMatC= 4.02D-04 BMatP= 1.14D-02
 IDIUse=3 WtCom= 9.85D-01 WtEn= 1.52D-02
 Coeff-Com: -0.101D-01 0.527D-01 0.242D+00 0.715D+00
 Coeff-En:   0.000D+00 0.000D+00 0.000D+00 0.100D+01
 Coeff:     -0.997D-02 0.519D-01 0.239D+00 0.719D+00
 Gap=     0.511 Goal=   None    Shift=    0.000
 RMSDP=3.54D-05 MaxDP=2.58D-03 DE=-6.93D-03 OVMax= 4.27D-03

 Cycle   5  Pass 1  IDiag  1:
 E= -282.964620192777     Delta-E=       -0.000336702985 Rises=F Damp=F
 DIIS: error= 4.20D-04 at cycle   5 NSaved=   5.
 NSaved= 5 IEnMin= 5 EnMin= -282.964620192777     IErMin= 5 ErrMin= 4.20D-04
 ErrMax= 4.20D-04  0.00D+00 EMaxC= 1.00D-01 BMatC= 2.64D-05 BMatP= 4.02D-04
 IDIUse=3 WtCom= 9.96D-01 WtEn= 4.20D-03
 Coeff-Com:  0.177D-02-0.227D-01-0.743D-01 0.318D-01 0.106D+01
 Coeff-En:   0.000D+00 0.000D+00 0.000D+00 0.000D+00 0.100D+01
 Coeff:      0.176D-02-0.226D-01-0.739D-01 0.317D-01 0.106D+01
 Gap=     0.512 Goal=   None    Shift=    0.000
 RMSDP=2.12D-05 MaxDP=2.04D-03 DE=-3.37D-04 OVMax= 3.51D-03

 Cycle   6  Pass 1  IDiag  1:
 E= -282.964669924314     Delta-E=       -0.000049731537 Rises=F Damp=F
 DIIS: error= 8.98D-05 at cycle   6 NSaved=   6.
 NSaved= 6 IEnMin= 6 EnMin= -282.964669924314     IErMin= 6 ErrMin= 8.98D-05
 ErrMax= 8.98D-05  0.00D+00 EMaxC= 1.00D-01 BMatC= 4.20D-06 BMatP= 2.64D-05
 IDIUse=1 WtCom= 1.00D+00 WtEn= 0.00D+00
 Coeff-Com:  0.135D-02-0.104D-01-0.395D-01-0.799D-01 0.207D+00 0.922D+00
 Coeff:      0.135D-02-0.104D-01-0.395D-01-0.799D-01 0.207D+00 0.922D+00
 Gap=     0.512 Goal=   None    Shift=    0.000
 RMSDP=8.72D-06 MaxDP=8.63D-04 DE=-4.97D-05 OVMax= 1.02D-03

 Cycle   7  Pass 1  IDiag  1:
 E= -282.964677415708     Delta-E=       -0.000007491394 Rises=F Damp=F
 DIIS: error= 3.58D-05 at cycle   7 NSaved=   7.
 NSaved= 7 IEnMin= 7 EnMin= -282.964677415708     IErMin= 7 ErrMin= 3.58D-05
 ErrMax= 3.58D-05  0.00D+00 EMaxC= 1.00D-01 BMatC= 5.09D-07 BMatP= 4.20D-06
 IDIUse=1 WtCom= 1.00D+00 WtEn= 0.00D+00
 Coeff-Com: -0.137D-03 0.227D-02 0.912D-02-0.141D-01-0.115D+00 0.146D-01
 Coeff-Com:  0.110D+01
 Coeff:     -0.137D-03 0.227D-02 0.912D-02-0.141D-01-0.115D+00 0.146D-01
 Coeff:      0.110D+01
 Gap=     0.512 Goal=   None    Shift=    0.000
 RMSDP=2.87D-06 MaxDP=1.94D-04 DE=-7.49D-06 OVMax= 6.74D-04

 Cycle   8  Pass 1  IDiag  1:
 E= -282.964678770050     Delta-E=       -0.000001354342 Rises=F Damp=F
 DIIS: error= 1.19D-05 at cycle   8 NSaved=   8.
 NSaved= 8 IEnMin= 8 EnMin= -282.964678770050     IErMin= 8 ErrMin= 1.19D-05
 ErrMax= 1.19D-05  0.00D+00 EMaxC= 1.00D-01 BMatC= 7.67D-08 BMatP= 5.09D-07
 IDIUse=1 WtCom= 1.00D+00 WtEn= 0.00D+00
 Coeff-Com: -0.187D-03 0.143D-02 0.560D-02 0.762D-02-0.193D-01-0.127D+00
 Coeff-Com: -0.639D-01 0.120D+01
 Coeff:     -0.187D-03 0.143D-02 0.560D-02 0.762D-02-0.193D-01-0.127D+00
 Coeff:     -0.639D-01 0.120D+01
 Gap=     0.512 Goal=   None    Shift=    0.000
 RMSDP=1.19D-06 MaxDP=6.40D-05 DE=-1.35D-06 OVMax= 2.87D-04

 Cycle   9  Pass 1  IDiag  1:
 E= -282.964678982583     Delta-E=       -0.000000212533 Rises=F Damp=F
 DIIS: error= 4.65D-06 at cycle   9 NSaved=   9.
 NSaved= 9 IEnMin= 9 EnMin= -282.964678982583     IErMin= 9 ErrMin= 4.65D-06
 ErrMax= 4.65D-06  0.00D+00 EMaxC= 1.00D-01 BMatC= 9.42D-09 BMatP= 7.67D-08
 IDIUse=1 WtCom= 1.00D+00 WtEn= 0.00D+00
 Coeff-Com: -0.185D-04-0.106D-04-0.338D-04 0.222D-02 0.127D-01-0.245D-01
 Coeff-Com: -0.142D+00 0.188D+00 0.964D+00
 Coeff:     -0.185D-04-0.106D-04-0.338D-04 0.222D-02 0.127D-01-0.245D-01
 Coeff:     -0.142D+00 0.188D+00 0.964D+00
 Gap=     0.512 Goal=   None    Shift=    0.000
 RMSDP=3.65D-07 MaxDP=1.99D-05 DE=-2.13D-07 OVMax= 8.30D-05

 Cycle  10  Pass 1  IDiag  1:
 E= -282.964679003076     Delta-E=       -0.000000020493 Rises=F Damp=F
 DIIS: error= 1.82D-06 at cycle  10 NSaved=  10.
 NSaved=10 IEnMin=10 EnMin= -282.964679003076     IErMin=10 ErrMin= 1.82D-06
 ErrMax= 1.82D-06  0.00D+00 EMaxC= 1.00D-01 BMatC= 1.17D-09 BMatP= 9.42D-09
 IDIUse=1 WtCom= 1.00D+00 WtEn= 0.00D+00
 Coeff-Com:  0.250D-04-0.211D-03-0.789D-03-0.129D-02 0.449D-02 0.154D-01
 Coeff-Com:  0.925D-03-0.165D+00 0.828D-01 0.106D+01
 Coeff:      0.250D-04-0.211D-03-0.789D-03-0.129D-02 0.449D-02 0.154D-01
 Coeff:      0.925D-03-0.165D+00 0.828D-01 0.106D+01
 Gap=     0.512 Goal=   None    Shift=    0.000
 RMSDP=1.47D-07 MaxDP=7.94D-06 DE=-2.05D-08 OVMax= 2.48D-05

 Cycle  11  Pass 1  IDiag  1:
 E= -282.964679005579     Delta-E=       -0.000000002503 Rises=F Damp=F
 DIIS: error= 4.15D-07 at cycle  11 NSaved=  11.
 NSaved=11 IEnMin=11 EnMin= -282.964679005579     IErMin=11 ErrMin= 4.15D-07
 ErrMax= 4.15D-07  0.00D+00 EMaxC= 1.00D-01 BMatC= 7.90D-11 BMatP= 1.17D-09
 IDIUse=1 WtCom= 1.00D+00 WtEn= 0.00D+00
 Coeff-Com:  0.174D-07 0.101D-04 0.738D-04-0.112D-03-0.121D-02 0.297D-03
 Coeff-Com:  0.118D-01 0.170D-02-0.926D-01-0.126D+00 0.121D+01
 Coeff:      0.174D-07 0.101D-04 0.738D-04-0.112D-03-0.121D-02 0.297D-03
 Coeff:      0.118D-01 0.170D-02-0.926D-01-0.126D+00 0.121D+01
 Gap=     0.512 Goal=   None    Shift=    0.000
 RMSDP=5.35D-08 MaxDP=3.13D-06 DE=-2.50D-09 OVMax= 5.50D-06

 Cycle  12  Pass 1  IDiag  1:
 E= -282.964679005767     Delta-E=       -0.000000000188 Rises=F Damp=F
 DIIS: error= 1.35D-07 at cycle  12 NSaved=  12.
 NSaved=12 IEnMin=12 EnMin= -282.964679005767     IErMin=12 ErrMin= 1.35D-07
 ErrMax= 1.35D-07  0.00D+00 EMaxC= 1.00D-01 BMatC= 5.22D-12 BMatP= 7.90D-11
 IDIUse=1 WtCom= 1.00D+00 WtEn= 0.00D+00
 Coeff-Com: -0.179D-05 0.142D-04 0.552D-04 0.924D-04-0.226D-03-0.120D-02
 Coeff-Com: -0.145D-02 0.142D-01 0.196D-03-0.749D-01-0.818D-01 0.115D+01
 Coeff:     -0.179D-05 0.142D-04 0.552D-04 0.924D-04-0.226D-03-0.120D-02
 Coeff:     -0.145D-02 0.142D-01 0.196D-03-0.749D-01-0.818D-01 0.115D+01
 Gap=     0.512 Goal=   None    Shift=    0.000
 RMSDP=1.28D-08 MaxDP=5.91D-07 DE=-1.88D-10 OVMax= 1.36D-06

 Cycle  13  Pass 1  IDiag  1:
 E= -282.964679005786     Delta-E=       -0.000000000019 Rises=F Damp=F
 DIIS: error= 4.14D-08 at cycle  13 NSaved=  13.
 NSaved=13 IEnMin=13 EnMin= -282.964679005786     IErMin=13 ErrMin= 4.14D-08
 ErrMax= 4.14D-08  0.00D+00 EMaxC= 1.00D-01 BMatC= 5.40D-13 BMatP= 5.22D-12
 IDIUse=1 WtCom= 1.00D+00 WtEn= 0.00D+00
 Coeff-Com:  0.675D-07-0.157D-05-0.894D-05 0.656D-05 0.139D-03 0.860D-05
 Coeff-Com: -0.133D-02 0.376D-04 0.886D-02 0.114D-01-0.116D+00 0.235D-01
 Coeff-Com:  0.107D+01
 Coeff:      0.675D-07-0.157D-05-0.894D-05 0.656D-05 0.139D-03 0.860D-05
 Coeff:     -0.133D-02 0.376D-04 0.886D-02 0.114D-01-0.116D+00 0.235D-01
 Coeff:      0.107D+01
 Gap=     0.512 Goal=   None    Shift=    0.000
 RMSDP=3.22D-09 MaxDP=1.06D-07 DE=-1.88D-11 OVMax= 5.44D-07

 SCF Done:  E(RHF) =  -282.964679006     A.U. after   13 cycles
            NFock= 13  Conv=0.32D-08     -V/T= 2.0010
 KE= 2.826711394499D+02 PE=-1.028504239345D+03 EE= 2.818641349765D+02
 Leave Link  502 at Fri Jan 15 18:01:06 2021, MaxMem= 13421772800 cpu:             550.4 elap:             122.6
 (Enter /data2/software/Gaussian/g16_c01-gpu/g16/l801.exe)
 ExpMin= 8.99D-02 ExpMax= 6.14D+04 ExpMxC= 5.91D+02 IAcc=3 IRadAn=         5 AccDes= 0.00D+00
 HarFok:  IExCor=  205 AccDes= 0.00D+00 IRadAn=         5 IDoV=-2 UseB2=F ITyADJ=14
 ICtDFT= 12500011 ScaDFX=  1.000000  1.000000  1.000000  1.000000
 DSYEVD-2 returned Info=        1623 IAlg= 4 N=    55 NDim=    55 NE2=   244021963 trying  DSYEV.
 Largest valence mixing into a core orbital is  1.85D-04
 Largest core mixing into a valence orbital is  2.93D-05
 Range of M.O.s used for correlation:     6   425
 NBasis=   425 NAE=    20 NBE=    20 NFC=     5 NFV=     0
 NROrb=    420 NOA=    15 NOB=    15 NVA=   405 NVB=   405

 **** Warning!!: The largest alpha MO coefficient is  0.18706316D+02

 Leave Link  801 at Fri Jan 15 18:01:06 2021, MaxMem= 13421772800 cpu:               2.9 elap:               0.3
 (Enter /data2/software/Gaussian/g16_c01-gpu/g16/l906.exe)
 FulOut=F Deriv=F AODrv=F NAtomX=    10
   MMem=         326  MDisk=          15 MDiskD=          15
  W3Min=     3189375 MinDsk=     4853450 NBas6D=         525
 NBas2D=      139755    NTT=      138075    LW2=     4508827
    MDV= 13420925228 MDiskM=       56799 NBas2p=      134127
 Fully direct method using O(OVN) memory.
 IMap=   1   2   3   4   5   6   7   8   9  10  11  12  13  14  15
 JobTyp=1 Pass  1:  I=   1 to  15 NPSUse= 12 ParTrn=T ParDer=T DoDerP=F.
 Spin components of T(2) and E(2):
     alpha-alpha T2 =       0.3656924347D-01 E2=     -0.1329541104D+00
     alpha-beta  T2 =       0.2046835818D+00 E2=     -0.8204980533D+00
     beta-beta   T2 =       0.3656924347D-01 E2=     -0.1329541104D+00
 The integrals were generated   1 times.
 ANorm=    0.1130407921D+01
 E2 =    -0.1086406274D+01 EUMP2 =    -0.28405108528001D+03
 Leave Link  906 at Fri Jan 15 18:03:58 2021, MaxMem= 13421772800 cpu:            2054.5 elap:             171.9
 (Enter /data2/software/Gaussian/g16_c01-gpu/g16/l601.exe)
 Copying SCF densities to generalized density rwf, IOpCl= 0 IROHF=0.

 **********************************************************************

            Population analysis using the SCF Density.

 **********************************************************************

 Orbital symmetries:
       Occupied  (A) (A) (A) (A) (A) (A) (A) (A) (A) (A) (A) (A)
                 (A) (A) (A) (A) (A) (A) (A) (A)
       Virtual   (A) (A) (A) (A) (A) (A) (A) (A) (A) (A) (A) (A)
                 (A) (A) (A) (A) (A) (A) (A) (A) (A) (A) (A) (A)
                 (A) (A) (A) (A) (A) (A) (A) (A) (A) (A) (A) (A)
                 (A) (A) (A) (A) (A) (A) (A) (A) (A) (A) (A) (A)
                 (A) (A) (A) (A) (A) (A) (A) (A) (A) (A) (A) (A)
                 (A) (A) (A) (A) (A) (A) (A) (A) (A) (A) (A) (A)
                 (A) (A) (A) (A) (A) (A) (A) (A) (A) (A) (A) (A)
                 (A) (A) (A) (A) (A) (A) (A) (A) (A) (A) (A) (A)
                 (A) (A) (A) (A) (A) (A) (A) (A) (A) (A) (A) (A)
                 (A) (A) (A) (A) (A) (A) (A) (A) (A) (A) (A) (A)
                 (A) (A) (A) (A) (A) (A) (A) (A) (A) (A) (A) (A)
                 (A) (A) (A) (A) (A) (A) (A) (A) (A) (A) (A) (A)
                 (A) (A) (A) (A) (A) (A) (A) (A) (A) (A) (A) (A)
                 (A) (A) (A) (A) (A) (A) (A) (A) (A) (A) (A) (A)
                 (A) (A) (A) (A) (A) (A) (A) (A) (A) (A) (A) (A)
                 (A) (A) (A) (A) (A) (A) (A) (A) (A) (A) (A) (A)
                 (A) (A) (A) (A) (A) (A) (A) (A) (A) (A) (A) (A)
                 (A) (A) (A) (A) (A) (A) (A) (A) (A) (A) (A) (A)
                 (A) (A) (A) (A) (A) (A) (A) (A) (A) (A) (A) (A)
                 (A) (A) (A) (A) (A) (A) (A) (A) (A) (A) (A) (A)
                 (A) (A) (A) (A) (A) (A) (A) (A) (A) (A) (A) (A)
                 (A) (A) (A) (A) (A) (A) (A) (A) (A) (A) (A) (A)
                 (A) (A) (A) (A) (A) (A) (A) (A) (A) (A) (A) (A)
                 (A) (A) (A) (A) (A) (A) (A) (A) (A) (A) (A) (A)
                 (A) (A) (A) (A) (A) (A) (A) (A) (A) (A) (A) (A)
                 (A) (A) (A) (A) (A) (A) (A) (A) (A) (A) (A) (A)
                 (A) (A) (A) (A) (A) (A) (A) (A) (A) (A) (A) (A)
                 (A) (A) (A) (A) (A) (A) (A) (A) (A) (A) (A) (A)
                 (A) (A) (A) (A) (A) (A) (A) (A) (A) (A) (A) (A)
                 (A) (A) (A) (A) (A) (A) (A) (A) (A) (A) (A) (A)
                 (A) (A) (A) (A) (A) (A) (A) (A) (A) (A) (A) (A)
                 (A) (A) (A) (A) (A) (A) (A) (A) (A) (A) (A) (A)
                 (A) (A) (A) (A) (A) (A) (A) (A) (A) (A) (A) (A)
                 (A) (A) (A) (A) (A) (A) (A) (A) (A)
 The electronic state is 1-A.
 Alpha  occ. eigenvalues --  -20.59423 -20.52987 -15.58563 -11.37235 -11.28912
 Alpha  occ. eigenvalues --   -1.45291  -1.35526  -1.22328  -0.97872  -0.81132
 Alpha  occ. eigenvalues --   -0.73653  -0.71419  -0.67678  -0.62720  -0.62257
 Alpha  occ. eigenvalues --   -0.56207  -0.55781  -0.47339  -0.46497  -0.42421
 Alpha virt. eigenvalues --    0.08823   0.12931   0.13950   0.16996   0.17751
 Alpha virt. eigenvalues --    0.21377   0.23602   0.26002   0.29249   0.32892
 Alpha virt. eigenvalues --    0.35860   0.36859   0.36960   0.40543   0.43041
 Alpha virt. eigenvalues --    0.43367   0.44348   0.45848   0.46634   0.49898
 Alpha virt. eigenvalues --    0.52317   0.53137   0.54913   0.56413   0.57514
 Alpha virt. eigenvalues --    0.59992   0.61581   0.63160   0.67848   0.69346
 Alpha virt. eigenvalues --    0.70229   0.71556   0.73742   0.77689   0.77844
 Alpha virt. eigenvalues --    0.82255   0.86243   0.88586   0.91191   0.92481
 Alpha virt. eigenvalues --    0.92746   0.93430   0.95988   0.97253   1.00020
 Alpha virt. eigenvalues --    1.02960   1.06085   1.07815   1.09680   1.10427
 Alpha virt. eigenvalues --    1.11351   1.13962   1.14427   1.15625   1.17817
 Alpha virt. eigenvalues --    1.19352   1.24371   1.25913   1.27971   1.29134
 Alpha virt. eigenvalues --    1.35940   1.36629   1.41678   1.43919   1.47460
 Alpha virt. eigenvalues --    1.50581   1.51758   1.54828   1.59010   1.61123
 Alpha virt. eigenvalues --    1.62409   1.63380   1.68402   1.70614   1.73273
 Alpha virt. eigenvalues --    1.74595   1.79085   1.80140   1.84246   1.87282
 Alpha virt. eigenvalues --    1.91001   1.92489   1.95446   1.98152   1.99528
 Alpha virt. eigenvalues --    2.03424   2.04871   2.07450   2.08117   2.13471
 Alpha virt. eigenvalues --    2.14586   2.16195   2.22486   2.23401   2.26759
 Alpha virt. eigenvalues --    2.29276   2.31009   2.32936   2.33298   2.36303
 Alpha virt. eigenvalues --    2.38222   2.39954   2.42848   2.43842   2.45199
 Alpha virt. eigenvalues --    2.47501   2.51135   2.52527   2.54010   2.56103
 Alpha virt. eigenvalues --    2.59800   2.60397   2.61577   2.64401   2.65820
 Alpha virt. eigenvalues --    2.68834   2.70107   2.72070   2.74048   2.76723
 Alpha virt. eigenvalues --    2.78291   2.80855   2.83549   2.85277   2.86422
 Alpha virt. eigenvalues --    2.91701   2.92318   2.98348   3.00037   3.02668
 Alpha virt. eigenvalues --    3.04542   3.07499   3.11997   3.12352   3.15275
 Alpha virt. eigenvalues --    3.18582   3.20937   3.24153   3.27572   3.29797
 Alpha virt. eigenvalues --    3.33771   3.34324   3.38817   3.40320   3.42329
 Alpha virt. eigenvalues --    3.44563   3.48996   3.49586   3.54015   3.56643
 Alpha virt. eigenvalues --    3.61902   3.64523   3.66578   3.67702   3.71361
 Alpha virt. eigenvalues --    3.73957   3.76251   3.77233   3.81971   3.83865
 Alpha virt. eigenvalues --    3.91109   3.92301   3.94118   3.95724   4.01010
 Alpha virt. eigenvalues --    4.02475   4.09194   4.10649   4.13667   4.16127
 Alpha virt. eigenvalues --    4.22337   4.23981   4.26802   4.29253   4.30898
 Alpha virt. eigenvalues --    4.35096   4.38480   4.43356   4.44820   4.47342
 Alpha virt. eigenvalues --    4.51914   4.53861   4.57098   4.60498   4.63495
 Alpha virt. eigenvalues --    4.64413   4.66830   4.73882   4.78624   4.80927
 Alpha virt. eigenvalues --    4.83709   4.88089   4.90877   4.98516   5.03551
 Alpha virt. eigenvalues --    5.17068   5.24845   5.32815   5.42551   5.46860
 Alpha virt. eigenvalues --    5.54918   5.63175   5.65879   5.73553   5.81282
 Alpha virt. eigenvalues --    5.84431   5.86467   5.92054   5.94748   5.96178
 Alpha virt. eigenvalues --    5.98530   6.02147   6.04460   6.08396   6.12417
 Alpha virt. eigenvalues --    6.15289   6.16832   6.18495   6.22747   6.23870
 Alpha virt. eigenvalues --    6.26659   6.29362   6.33010   6.35911   6.40690
 Alpha virt. eigenvalues --    6.42960   6.43790   6.46578   6.50907   6.52917
 Alpha virt. eigenvalues --    6.55878   6.56280   6.58087   6.63513   6.65719
 Alpha virt. eigenvalues --    6.67637   6.74656   6.77553   6.82813   6.84164
 Alpha virt. eigenvalues --    6.90452   6.94376   6.94678   6.97998   7.02315
 Alpha virt. eigenvalues --    7.03927   7.12522   7.13568   7.19120   7.20656
 Alpha virt. eigenvalues --    7.26574   7.28074   7.30552   7.36356   7.39310
 Alpha virt. eigenvalues --    7.40545   7.41846   7.46965   7.48690   7.52352
 Alpha virt. eigenvalues --    7.53761   7.55944   7.61522   7.68363   7.73933
 Alpha virt. eigenvalues --    7.76483   7.76827   7.84222   7.86038   7.87578
 Alpha virt. eigenvalues --    7.89650   7.93234   7.96033   7.96263   8.00347
 Alpha virt. eigenvalues --    8.02390   8.06241   8.08674   8.09837   8.13675
 Alpha virt. eigenvalues --    8.19199   8.20201   8.22568   8.24441   8.26854
 Alpha virt. eigenvalues --    8.29013   8.31937   8.34318   8.36911   8.37866
 Alpha virt. eigenvalues --    8.43666   8.48355   8.50896   8.52193   8.58795
 Alpha virt. eigenvalues --    8.60699   8.63675   8.65891   8.68159   8.73801
 Alpha virt. eigenvalues --    8.75637   8.80573   8.82164   8.85820   8.87738
 Alpha virt. eigenvalues --    8.89367   8.92023   8.95713   9.02342   9.08431
 Alpha virt. eigenvalues --    9.09152   9.12926   9.15338   9.18037   9.21856
 Alpha virt. eigenvalues --    9.23986   9.27023   9.31682   9.32715   9.36660
 Alpha virt. eigenvalues --    9.40236   9.40410   9.44505   9.48546   9.59676
 Alpha virt. eigenvalues --    9.64523   9.66697   9.71465   9.77593   9.79050
 Alpha virt. eigenvalues --    9.87423   9.95617   9.98357  10.11129  10.19300
 Alpha virt. eigenvalues --   10.26619  10.27969  10.30311  10.33742  10.36105
 Alpha virt. eigenvalues --   10.41826  10.42653  10.47442  10.48736  10.54348
 Alpha virt. eigenvalues --   10.57906  10.60629  10.67771  10.72612  10.76045
 Alpha virt. eigenvalues --   10.76649  10.84193  10.89919  10.93274  10.94956
 Alpha virt. eigenvalues --   11.02788  11.07773  11.13784  11.23649  11.29719
 Alpha virt. eigenvalues --   11.49153  11.51300  11.62760  11.64978  11.66521
 Alpha virt. eigenvalues --   11.70201  11.88960  11.97149  11.97941  12.00906
 Alpha virt. eigenvalues --   12.08793  12.12729  12.15091  12.23551  12.25441
 Alpha virt. eigenvalues --   12.27322  12.30300  12.32700  12.45732  12.46045
 Alpha virt. eigenvalues --   12.50212  12.72338  12.79912  12.82223  12.86673
 Alpha virt. eigenvalues --   12.88125  13.02085  13.13492  13.25582  13.51408
 Alpha virt. eigenvalues --   13.65886  13.93630  14.04089  14.25779  14.34312
 Alpha virt. eigenvalues --   14.40690  14.56138  14.70420  14.79772  16.66587
 Alpha virt. eigenvalues --   24.90860  26.62987  34.85055  43.02334  44.18111
          Condensed to atoms (all electrons):
               1          2          3          4          5          6
     1  N    6.493035   0.384055   0.262795  -0.068268  -0.031009  -0.047622
     2  H    0.384055   0.521916  -0.035679   0.004620   0.005151  -0.008359
     3  C    0.262795  -0.035679   4.942050   0.300773   0.413525   0.441879
     4  C   -0.068268   0.004620   0.300773   4.225992  -0.031510  -0.064499
     5  H   -0.031009   0.005151   0.413525  -0.031510   0.570193  -0.017449
     6  H   -0.047622  -0.008359   0.441879  -0.064499  -0.017449   0.579460
     7  O    0.004931  -0.000145  -0.088618   0.730553   0.002019   0.008101
     8  O   -0.010658   0.000439  -0.108132   0.386036   0.001359   0.005054
     9  H    0.385024  -0.023329  -0.032169   0.006238  -0.009215  -0.001171
    10  H    0.037931  -0.001123  -0.007875  -0.055933   0.000959   0.002605
               7          8          9         10
     1  N    0.004931  -0.010658   0.385024   0.037931
     2  H   -0.000145   0.000439  -0.023329  -0.001123
     3  C   -0.088618  -0.108132  -0.032169  -0.007875
     4  C    0.730553   0.386036   0.006238  -0.055933
     5  H    0.002019   0.001359  -0.009215   0.000959
     6  H    0.008101   0.005054  -0.001171   0.002605
     7  O    7.871631  -0.078920  -0.000321   0.006298
     8  O   -0.078920   7.899882  -0.000451   0.322203
     9  H   -0.000321  -0.000451   0.514304  -0.001377
    10  H    0.006298   0.322203  -0.001377   0.404096
 Mulliken charges:
               1
     1  N   -0.410216
     2  H    0.152453
     3  C   -0.088549
     4  C    0.565997
     5  H    0.095976
     6  H    0.102002
     7  O   -0.455529
     8  O   -0.416814
     9  H    0.162466
    10  H    0.292214
 Sum of Mulliken charges =  -0.00000
 Mulliken charges with hydrogens summed into heavy atoms:
               1
     1  N   -0.095296
     3  C    0.109428
     4  C    0.565997
     7  O   -0.455529
     8  O   -0.124600
 Electronic spatial extent (au):  <R**2>=            408.9248
 Charge=             -0.0000 electrons
 Dipole moment (field-independent basis, Debye):
    X=             -5.8953    Y=             -0.7044    Z=             -0.0098  Tot=              5.9372
 Quadrupole moment (field-independent basis, Debye-Ang):
   XX=            -32.0710   YY=            -31.1470   ZZ=            -27.0456
   XY=              1.7868   XZ=              0.5516   YZ=             -0.4778
 Traceless Quadrupole moment (field-independent basis, Debye-Ang):
   XX=             -1.9831   YY=             -1.0592   ZZ=              3.0423
   XY=              1.7868   XZ=              0.5516   YZ=             -0.4778
 Octapole moment (field-independent basis, Debye-Ang**2):
  XXX=            -25.8370  YYY=              2.2204  ZZZ=             -0.8248  XYY=             -4.4692
  XXY=              2.6692  XXZ=              0.2745  XZZ=             -3.7190  YZZ=             -0.4609
  YYZ=              0.1016  XYZ=              0.5789
 Hexadecapole moment (field-independent basis, Debye-Ang**3):
 XXXX=           -295.6169 YYYY=           -136.9811 ZZZZ=            -33.7378 XXXY=              9.4863
 XXXZ=             -0.7375 YYYX=             -3.4384 YYYZ=              0.9673 ZZZX=              2.1992
 ZZZY=             -0.9751 XXYY=            -83.8463 XXZZ=            -49.0282 YYZZ=            -28.2509
 XXYZ=             -2.3279 YYXZ=             -0.0138 ZZXY=              0.5539
 N-N= 1.810042859132D+02 E-N=-1.028504236940D+03  KE= 2.826711394499D+02
 Leave Link  601 at Fri Jan 15 18:03:59 2021, MaxMem= 13421772800 cpu:               2.7 elap:               0.3
 (Enter /data2/software/Gaussian/g16_c01-gpu/g16/l9999.exe)
 Unable to Open any file for archive entry.
 1\1\GINC-CU11\SP\RMP2-FC\CC-pVQZ\C2H5N1O2\SHUCHONG\15-Jan-2021\0\\#p M
 P2 cc-pVQZ\\start best geom PCCP paper\\0,1\N\H,1,1.0091\C,1,1.4609,2,
 112.0646\C,3,1.5252,1,111.6045,2,101.3936,0\H,3,1.0891,1,110.2343,4,11
 7.8521,0\H,3,1.089,1,113.9016,4,-121.6454,0\O,4,1.2001,3,122.6125,1,-1
 71.93,0\O,4,1.3356,3,114.3853,1,8.8971,0\H,1,1.008,3,112.2608,4,-136.9
 715,0\H,8,0.976,4,105.7699,3,-1.3866,0\\Version=AM64L-G16RevC.01\State
 =1-A\HF=-282.964679\MP2=-284.0510853\RMSD=3.218e-09\PG=C01 [X(C2H5N1O2
 )]\\@
 The archive entry for this job was punched.


 GARLIC THEN HAVE POWER TO SAVE FROM DEATH
 BEAR WITH IT THOUGH IT MAKETH UNSAVORY BREATH,
 AND SCORN NOT GARLIC LIKE SOME THAT THINK
 IT ONLY MAKETH MEN WINK AND DRINK AND STINK.
   --  SIR JOHN HARRINGTON,
       "THE ENGLISHMAN'S DOCTOR", 1609
 Job cpu time:       0 days  0 hours 44 minutes 15.4 seconds.
 Elapsed time:       0 days  0 hours  4 minutes 59.1 seconds.
 File lengths (MBytes):  RWF=     72 Int=      0 D2E=      0 Chk=     13 Scr=      1
 Normal termination of Gaussian 16 at Fri Jan 15 18:03:59 2021.
