 Entering Gaussian System, Link 0=g16
 Input=gct_Best_geom_MP2_cc-pVQZ.gjf
 Output=gct_Best_geom_MP2_cc-pVQZ.log
 Initial command:
 /data2/software/Gaussian/g16_c01-gpu/g16/l1.exe "/home/shuchong/scratch/Gau-4008.inp" -scrdir="/home/shuchong/scratch/"
 Entering Link 1 = /data2/software/Gaussian/g16_c01-gpu/g16/l1.exe PID=      4009.
  
 Copyright (c) 1988-2019, Gaussian, Inc.  All Rights Reserved.
  
 This is part of the Gaussian(R) 16 program.  It is based on
 the Gaussian(R) 09 system (copyright 2009, Gaussian, Inc.),
 the Gaussian(R) 03 system (copyright 2003, Gaussian, Inc.),
 the Gaussian(R) 98 system (copyright 1998, Gaussian, Inc.),
 the Gaussian(R) 94 system (copyright 1995, Gaussian, Inc.),
 the Gaussian 92(TM) system (copyright 1992, Gaussian, Inc.),
 the Gaussian 90(TM) system (copyright 1990, Gaussian, Inc.),
 the Gaussian 88(TM) system (copyright 1988, Gaussian, Inc.),
 the Gaussian 86(TM) system (copyright 1986, Carnegie Mellon
 University), and the Gaussian 82(TM) system (copyright 1983,
 Carnegie Mellon University). Gaussian is a federally registered
 trademark of Gaussian, Inc.
  
 This software contains proprietary and confidential information,
 including trade secrets, belonging to Gaussian, Inc.
  
 This software is provided under written license and may be
 used, copied, transmitted, or stored only in accord with that
 written license.
  
 The following legend is applicable only to US Government
 contracts under FAR:
  
                    RESTRICTED RIGHTS LEGEND
  
 Use, reproduction and disclosure by the US Government is
 subject to restrictions as set forth in subparagraphs (a)
 and (c) of the Commercial Computer Software - Restricted
 Rights clause in FAR 52.227-19.
  
 Gaussian, Inc.
 340 Quinnipiac St., Bldg. 40, Wallingford CT 06492
  
  
 ---------------------------------------------------------------
 Warning -- This program may not be used in any manner that
 competes with the business of Gaussian, Inc. or will provide
 assistance to any competitor of Gaussian, Inc.  The licensee
 of this program is prohibited from giving any competitor of
 Gaussian, Inc. access to this program.  By using this program,
 the user acknowledges that Gaussian, Inc. is engaged in the
 business of creating and licensing software in the field of
 computational chemistry and represents and warrants to the
 licensee that it is not a competitor of Gaussian, Inc. and that
 it will not use this program in any manner prohibited above.
 ---------------------------------------------------------------
  

 Cite this work as:
 Gaussian 16, Revision C.01,
 M. J. Frisch, G. W. Trucks, H. B. Schlegel, G. E. Scuseria, 
 M. A. Robb, J. R. Cheeseman, G. Scalmani, V. Barone, 
 G. A. Petersson, H. Nakatsuji, X. Li, M. Caricato, A. V. Marenich, 
 J. Bloino, B. G. Janesko, R. Gomperts, B. Mennucci, H. P. Hratchian, 
 J. V. Ortiz, A. F. Izmaylov, J. L. Sonnenberg, D. Williams-Young, 
 F. Ding, F. Lipparini, F. Egidi, J. Goings, B. Peng, A. Petrone, 
 T. Henderson, D. Ranasinghe, V. G. Zakrzewski, J. Gao, N. Rega, 
 G. Zheng, W. Liang, M. Hada, M. Ehara, K. Toyota, R. Fukuda, 
 J. Hasegawa, M. Ishida, T. Nakajima, Y. Honda, O. Kitao, H. Nakai, 
 T. Vreven, K. Throssell, J. A. Montgomery, Jr., J. E. Peralta, 
 F. Ogliaro, M. J. Bearpark, J. J. Heyd, E. N. Brothers, K. N. Kudin, 
 V. N. Staroverov, T. A. Keith, R. Kobayashi, J. Normand, 
 K. Raghavachari, A. P. Rendell, J. C. Burant, S. S. Iyengar, 
 J. Tomasi, M. Cossi, J. M. Millam, M. Klene, C. Adamo, R. Cammi, 
 J. W. Ochterski, R. L. Martin, K. Morokuma, O. Farkas, 
 J. B. Foresman, and D. J. Fox, Gaussian, Inc., Wallingford CT, 2019.
 
 ******************************************
 Gaussian 16:  AM64L-G16RevC.01  3-Jul-2019
                15-Jan-2021 
 ******************************************
 %chk=gct_Best_geom_MP2_cc-pVQZ.chk
 %nprocshared=16
 Will use up to   16 processors via shared memory.
 %mem=100GB
 --------------
 #p MP2 cc-pVQZ
 --------------
 1/38=1,172=1/1;
 2/12=2,17=6,18=5,40=1/2;
 3/5=16,6=2,11=9,25=1,30=1/1,2,3;
 4//1;
 5/5=2,38=5/2;
 8/10=1/1;
 9/16=-3/6;
 6/7=2,8=2,9=2,10=2/1;
 99/5=1,9=1/99;
 Leave Link    1 at Fri Jan 15 13:41:40 2021, MaxMem= 13421772800 cpu:               1.8 elap:               0.1
 (Enter /data2/software/Gaussian/g16_c01-gpu/g16/l101.exe)
 --------------------------
 start best geom PCCP paper
 --------------------------
 Symbolic Z-matrix:
 Charge =  0 Multiplicity = 1
 C
 O                    1    B1
 O                    1    B2       2    A1
 H                    2    B3       1    A2       3    D1       0
 C                    1    B4       3    A3       2    D2       0
 N                    5    B5       1    A4       3    D3       0
 H                    5    B6       1    A5       3    D4       0
 H                    5    B7       1    A6       3    D5       0
 H                    6    B8       5    A7       1    D6       0
 H                    6    B9       5    A8       1    D7       0
       Variables:
  B1                    1.3486                   
  B2                    1.20239                  
  B3                    0.96515                  
  B4                    1.50625                  
  B5                    1.45443                  
  B6                    1.09773                  
  B7                    1.08654                  
  B8                    1.00989                  
  B9                    1.01063                  
  A1                  122.85413                  
  A2                  106.77622                  
  A3                  125.06726                  
  A4                  111.81084                  
  A5                  105.69489                  
  A6                  106.9966                   
  A7                  110.58167                  
  A8                  111.13985                  
  D1                    0.85878                  
  D2                 -176.8326                   
  D3                 -146.04703                  
  D4                   88.80239                  
  D5                  -25.78313                  
  D6                 -178.47161                  
  D7                  -58.48891                  
 
 ITRead=  0  0  0  0  0  0  0  0  0  0
 MicOpt= -1 -1 -1 -1 -1 -1 -1 -1 -1 -1
 NAtoms=     10 NQM=       10 NQMF=       0 NMMI=      0 NMMIF=      0
                NMic=       0 NMicF=      0.
                    Isotopes and Nuclear Properties:
 (Nuclear quadrupole moments (NQMom) in fm**2, nuclear magnetic moments (NMagM)
  in nuclear magnetons)

  Atom         1           2           3           4           5           6           7           8           9          10
 IAtWgt=          12          16          16           1          12          14           1           1           1           1
 AtmWgt=  12.0000000  15.9949146  15.9949146   1.0078250  12.0000000  14.0030740   1.0078250   1.0078250   1.0078250   1.0078250
 NucSpn=           0           0           0           1           0           2           1           1           1           1
 AtZEff=  -0.0000000  -0.0000000  -0.0000000  -0.0000000  -0.0000000  -0.0000000  -0.0000000  -0.0000000  -0.0000000  -0.0000000
 NQMom=    0.0000000   0.0000000   0.0000000   0.0000000   0.0000000   2.0440000   0.0000000   0.0000000   0.0000000   0.0000000
 NMagM=    0.0000000   0.0000000   0.0000000   2.7928460   0.0000000   0.4037610   2.7928460   2.7928460   2.7928460   2.7928460
 AtZNuc=   6.0000000   8.0000000   8.0000000   1.0000000   6.0000000   7.0000000   1.0000000   1.0000000   1.0000000   1.0000000
 Leave Link  101 at Fri Jan 15 13:41:40 2021, MaxMem= 13421772800 cpu:               1.8 elap:               0.2
 (Enter /data2/software/Gaussian/g16_c01-gpu/g16/l202.exe)
                          Input orientation:                          
 ---------------------------------------------------------------------
 Center     Atomic      Atomic             Coordinates (Angstroms)
 Number     Number       Type             X           Y           Z
 ---------------------------------------------------------------------
      1          6           0        0.000000    0.000000    0.000000
      2          8           0        0.000000    0.000000    1.348600
      3          8           0        1.010073    0.000000   -0.652299
      4          1           0        0.923971    0.013850    1.627176
      5          6           0       -1.394774   -0.068118   -0.564585
      6          7           0       -2.339318    0.696016    0.234978
      7          1           0       -1.629765   -1.137206   -0.647301
      8          1           0       -1.350295    0.339091   -1.570950
      9          1           0       -3.271551    0.617353   -0.145326
     10          1           0       -2.361616    0.363761    1.189170
 ---------------------------------------------------------------------
                    Distance matrix (angstroms):
                    1          2          3          4          5
     1  C    0.000000
     2  O    1.348600   0.000000
     3  O    1.202390   2.241393   0.000000
     4  H    1.871260   0.965152   2.281143   0.000000
     5  C    1.506250   2.368609   2.407410   3.191725   0.000000
     6  N    2.451951   2.682723   3.534136   3.612841   1.454430
     7  H    2.090064   2.816556   2.874370   3.608288   1.097730
     8  H    2.099086   3.234510   2.555434   3.937776   1.086540
     9  H    3.332461   3.649108   4.355509   4.594386   2.041554
    10  H    2.669022   2.394780   3.858966   3.333072   2.048648
                    6          7          8          9         10
     6  N    0.000000
     7  H    2.154666   0.000000
     8  H    2.089722   1.763713   0.000000
     9  H    1.009890   2.454775   2.408539   0.000000
    10  H    1.010630   2.482163   2.939667   1.634983   0.000000
 Stoichiometry    C2H5NO2
 Framework group  C1[X(C2H5NO2)]
 Deg. of freedom    24
 Full point group                 C1      NOp   1
 Largest Abelian subgroup         C1      NOp   1
 Largest concise Abelian subgroup C1      NOp   1
                         Standard orientation:                         
 ---------------------------------------------------------------------
 Center     Atomic      Atomic             Coordinates (Angstroms)
 Number     Number       Type             X           Y           Z
 ---------------------------------------------------------------------
      1          6           0        0.618518   -0.113452    0.015582
      2          8           0        0.629857    1.232314    0.102216
      3          8           0        1.611391   -0.762918   -0.179712
      4          1           0        1.543352    1.512541   -0.033863
      5          6           0       -0.754494   -0.683284    0.258311
      6          7           0       -1.797230    0.162725   -0.300561
      7          1           0       -0.825344   -0.835413    1.343137
      8          1           0       -0.780740   -1.661095   -0.214728
      9          1           0       -2.709920   -0.223225   -0.105836
     10          1           0       -1.760866    1.093359    0.091830
 ---------------------------------------------------------------------
 Rotational constants (GHZ):           9.8584151           4.1013166           3.0576868
 Leave Link  202 at Fri Jan 15 13:41:40 2021, MaxMem= 13421772800 cpu:               0.3 elap:               0.0
 (Enter /data2/software/Gaussian/g16_c01-gpu/g16/l301.exe)
 Standard basis: CC-pVQZ (5D, 7F)
 Ernie: Thresh=  0.10000D-02 Tol=  0.10000D-05 Strict=F.
 Ernie:  15 primitive shells out of 225 were deleted.
 There are   525 symmetry adapted cartesian basis functions of A   symmetry.
 There are   425 symmetry adapted basis functions of A   symmetry.
   425 basis functions,   630 primitive gaussians,   525 cartesian basis functions
    20 alpha electrons       20 beta electrons
       nuclear repulsion energy       180.5919126595 Hartrees.
 IExCor=    0 DFT=F Ex=HF Corr=None ExCW=0 ScaHFX=  1.000000
 ScaDFX=  1.000000  1.000000  1.000000  1.000000 ScalE2=  1.000000  1.000000
 IRadAn=      5 IRanWt=     -1 IRanGd=            0 ICorTp=0 IEmpDi=  4
 NAtoms=   10 NActive=   10 NUniq=   10 SFac= 1.00D+00 NAtFMM=   60 NAOKFM=F Big=F
 Integral buffers will be    131072 words long.
 Raffenetti 1 integral format.
 Two-electron integral symmetry is turned on.
 Leave Link  301 at Fri Jan 15 13:41:40 2021, MaxMem= 13421772800 cpu:               0.7 elap:               0.1
 (Enter /data2/software/Gaussian/g16_c01-gpu/g16/l302.exe)
 NPDir=0 NMtPBC=     1 NCelOv=     1 NCel=       1 NClECP=     1 NCelD=      1
         NCelK=      1 NCelE2=     1 NClLst=     1 CellRange=     0.0.
 One-electron integrals computed using PRISM.
 One-electron integral symmetry used in STVInt
 NBasis=   425 RedAO= T EigKep=  1.01D-04  NBF=   425
 NBsUse=   425 1.00D-06 EigRej= -1.00D+00 NBFU=   425
 Leave Link  302 at Fri Jan 15 13:41:41 2021, MaxMem= 13421772800 cpu:              15.3 elap:               1.0
 (Enter /data2/software/Gaussian/g16_c01-gpu/g16/l303.exe)
 DipDrv:  MaxL=1.
 Leave Link  303 at Fri Jan 15 13:41:42 2021, MaxMem= 13421772800 cpu:               0.8 elap:               0.1
 (Enter /data2/software/Gaussian/g16_c01-gpu/g16/l401.exe)
 ExpMin= 8.99D-02 ExpMax= 6.14D+04 ExpMxC= 5.91D+02 IAcc=3 IRadAn=         5 AccDes= 0.00D+00
 Harris functional with IExCor=  205 and IRadAn=       5 diagonalized for initial guess.
 HarFok:  IExCor=  205 AccDes= 0.00D+00 IRadAn=         5 IDoV= 1 UseB2=F ITyADJ=14
 ICtDFT=  3500011 ScaDFX=  1.000000  1.000000  1.000000  1.000000
 FoFCou: FMM=F IPFlag=           0 FMFlag=      100000 FMFlg1=           0
         NFxFlg=           0 DoJE=T BraDBF=F KetDBF=T FulRan=T
         wScrn=  0.000000 ICntrl=       500 IOpCl=  0 I1Cent=   200000004 NGrid=           0
         NMat0=    1 NMatS0=      1 NMatT0=    0 NMatD0=    1 NMtDS0=    0 NMtDT0=    0
 Petite list used in FoFCou.
 Harris En= -283.245910196706    
 JPrj=0 DoOrth=F DoCkMO=F.
 Leave Link  401 at Fri Jan 15 13:41:43 2021, MaxMem= 13421772800 cpu:              28.5 elap:               1.8
 (Enter /data2/software/Gaussian/g16_c01-gpu/g16/l502.exe)
 Keep R1 ints in memory in canonical form, NReq=4170200836.
 FoFCou: FMM=F IPFlag=           0 FMFlag=           0 FMFlg1=           0
         NFxFlg=           0 DoJE=F BraDBF=F KetDBF=F FulRan=T
         wScrn=  0.000000 ICntrl=       600 IOpCl=  0 I1Cent=           0 NGrid=           0
         NMat0=    1 NMatS0=  90525 NMatT0=    0 NMatD0=    1 NMtDS0=    0 NMtDT0=    0
 Symmetry not used in FoFCou.
 Two-electron integral symmetry not used.
 Closed shell SCF:
 Using DIIS extrapolation, IDIIS=  1040.
 NGot= 13421772800 LenX=  9323775669 LenY=  9323499519
 Requested convergence on RMS density matrix=1.00D-08 within 128 cycles.
 Requested convergence on MAX density matrix=1.00D-06.
 Requested convergence on             energy=1.00D-06.
 No special actions if energy rises.

 Cycle   1  Pass 1  IDiag  1:
 E= -282.723010129551    
 DIIS: error= 2.83D-02 at cycle   1 NSaved=   1.
 NSaved= 1 IEnMin= 1 EnMin= -282.723010129551     IErMin= 1 ErrMin= 2.83D-02
 ErrMax= 2.83D-02  0.00D+00 EMaxC= 1.00D-01 BMatC= 6.50D-01 BMatP= 6.50D-01
 IDIUse=3 WtCom= 7.17D-01 WtEn= 2.83D-01
 Coeff-Com:  0.100D+01
 Coeff-En:   0.100D+01
 Coeff:      0.100D+01
 Gap=     0.519 Goal=   None    Shift=    0.000
 GapD=    0.519 DampG=2.000 DampE=0.500 DampFc=1.0000 IDamp=-1.
 RMSDP=1.10D-03 MaxDP=8.58D-02              OVMax= 1.18D-01

 Cycle   2  Pass 1  IDiag  1:
 E= -282.910458945602     Delta-E=       -0.187448816050 Rises=F Damp=F
 DIIS: error= 1.27D-02 at cycle   2 NSaved=   2.
 NSaved= 2 IEnMin= 2 EnMin= -282.910458945602     IErMin= 2 ErrMin= 1.27D-02
 ErrMax= 1.27D-02  0.00D+00 EMaxC= 1.00D-01 BMatC= 8.08D-02 BMatP= 6.50D-01
 IDIUse=3 WtCom= 8.73D-01 WtEn= 1.27D-01
 Coeff-Com:  0.188D+00 0.812D+00
 Coeff-En:   0.000D+00 0.100D+01
 Coeff:      0.164D+00 0.836D+00
 Gap=     0.542 Goal=   None    Shift=    0.000
 RMSDP=6.16D-04 MaxDP=4.68D-02 DE=-1.87D-01 OVMax= 5.52D-02

 Cycle   3  Pass 1  IDiag  1:
 E= -282.957539248323     Delta-E=       -0.047080302722 Rises=F Damp=F
 DIIS: error= 5.44D-03 at cycle   3 NSaved=   3.
 NSaved= 3 IEnMin= 3 EnMin= -282.957539248323     IErMin= 3 ErrMin= 5.44D-03
 ErrMax= 5.44D-03  0.00D+00 EMaxC= 1.00D-01 BMatC= 1.11D-02 BMatP= 8.08D-02
 IDIUse=3 WtCom= 9.46D-01 WtEn= 5.44D-02
 Coeff-Com: -0.235D-01 0.242D+00 0.781D+00
 Coeff-En:   0.000D+00 0.000D+00 0.100D+01
 Coeff:     -0.222D-01 0.229D+00 0.793D+00
 Gap=     0.513 Goal=   None    Shift=    0.000
 RMSDP=1.03D-04 MaxDP=6.24D-03 DE=-4.71D-02 OVMax= 2.42D-02

 Cycle   4  Pass 1  IDiag  1:
 E= -282.964526912918     Delta-E=       -0.006987664594 Rises=F Damp=F
 DIIS: error= 1.03D-03 at cycle   4 NSaved=   4.
 NSaved= 4 IEnMin= 4 EnMin= -282.964526912918     IErMin= 4 ErrMin= 1.03D-03
 ErrMax= 1.03D-03  0.00D+00 EMaxC= 1.00D-01 BMatC= 3.45D-04 BMatP= 1.11D-02
 IDIUse=3 WtCom= 9.90D-01 WtEn= 1.03D-02
 Coeff-Com: -0.983D-02 0.514D-01 0.236D+00 0.723D+00
 Coeff-En:   0.000D+00 0.000D+00 0.000D+00 0.100D+01
 Coeff:     -0.973D-02 0.509D-01 0.233D+00 0.725D+00
 Gap=     0.510 Goal=   None    Shift=    0.000
 RMSDP=3.06D-05 MaxDP=1.78D-03 DE=-6.99D-03 OVMax= 4.43D-03

 Cycle   5  Pass 1  IDiag  1:
 E= -282.964823126809     Delta-E=       -0.000296213891 Rises=F Damp=F
 DIIS: error= 4.84D-04 at cycle   5 NSaved=   5.
 NSaved= 5 IEnMin= 5 EnMin= -282.964823126809     IErMin= 5 ErrMin= 4.84D-04
 ErrMax= 4.84D-04  0.00D+00 EMaxC= 1.00D-01 BMatC= 2.97D-05 BMatP= 3.45D-04
 IDIUse=3 WtCom= 9.95D-01 WtEn= 4.84D-03
 Coeff-Com:  0.184D-02-0.239D-01-0.762D-01 0.734D-01 0.102D+01
 Coeff-En:   0.000D+00 0.000D+00 0.000D+00 0.000D+00 0.100D+01
 Coeff:      0.183D-02-0.238D-01-0.759D-01 0.731D-01 0.102D+01
 Gap=     0.511 Goal=   None    Shift=    0.000
 RMSDP=1.87D-05 MaxDP=1.09D-03 DE=-2.96D-04 OVMax= 3.51D-03

 Cycle   6  Pass 1  IDiag  1:
 E= -282.964874602958     Delta-E=       -0.000051476150 Rises=F Damp=F
 DIIS: error= 8.77D-05 at cycle   6 NSaved=   6.
 NSaved= 6 IEnMin= 6 EnMin= -282.964874602958     IErMin= 6 ErrMin= 8.77D-05
 ErrMax= 8.77D-05  0.00D+00 EMaxC= 1.00D-01 BMatC= 4.33D-06 BMatP= 2.97D-05
 IDIUse=1 WtCom= 1.00D+00 WtEn= 0.00D+00
 Coeff-Com:  0.138D-02-0.110D-01-0.407D-01-0.722D-01 0.208D+00 0.915D+00
 Coeff:      0.138D-02-0.110D-01-0.407D-01-0.722D-01 0.208D+00 0.915D+00
 Gap=     0.511 Goal=   None    Shift=    0.000
 RMSDP=7.96D-06 MaxDP=5.61D-04 DE=-5.15D-05 OVMax= 9.81D-04

 Cycle   7  Pass 1  IDiag  1:
 E= -282.964882151346     Delta-E=       -0.000007548387 Rises=F Damp=F
 DIIS: error= 3.96D-05 at cycle   7 NSaved=   7.
 NSaved= 7 IEnMin= 7 EnMin= -282.964882151346     IErMin= 7 ErrMin= 3.96D-05
 ErrMax= 3.96D-05  0.00D+00 EMaxC= 1.00D-01 BMatC= 5.05D-07 BMatP= 4.33D-06
 IDIUse=1 WtCom= 1.00D+00 WtEn= 0.00D+00
 Coeff-Com: -0.127D-03 0.224D-02 0.866D-02-0.200D-01-0.106D+00 0.222D-01
 Coeff-Com:  0.109D+01
 Coeff:     -0.127D-03 0.224D-02 0.866D-02-0.200D-01-0.106D+00 0.222D-01
 Coeff:      0.109D+01
 Gap=     0.511 Goal=   None    Shift=    0.000
 RMSDP=2.88D-06 MaxDP=1.60D-04 DE=-7.55D-06 OVMax= 6.86D-04

 Cycle   8  Pass 1  IDiag  1:
 E= -282.964883488273     Delta-E=       -0.000001336927 Rises=F Damp=F
 DIIS: error= 1.50D-05 at cycle   8 NSaved=   8.
 NSaved= 8 IEnMin= 8 EnMin= -282.964883488273     IErMin= 8 ErrMin= 1.50D-05
 ErrMax= 1.50D-05  0.00D+00 EMaxC= 1.00D-01 BMatC= 7.64D-08 BMatP= 5.05D-07
 IDIUse=1 WtCom= 1.00D+00 WtEn= 0.00D+00
 Coeff-Com: -0.191D-03 0.144D-02 0.557D-02 0.745D-02-0.144D-01-0.127D+00
 Coeff-Com: -0.108D+00 0.124D+01
 Coeff:     -0.191D-03 0.144D-02 0.557D-02 0.745D-02-0.144D-01-0.127D+00
 Coeff:     -0.108D+00 0.124D+01
 Gap=     0.511 Goal=   None    Shift=    0.000
 RMSDP=1.22D-06 MaxDP=7.07D-05 DE=-1.34D-06 OVMax= 3.10D-04

 Cycle   9  Pass 1  IDiag  1:
 E= -282.964883709504     Delta-E=       -0.000000221232 Rises=F Damp=F
 DIIS: error= 4.71D-06 at cycle   9 NSaved=   9.
 NSaved= 9 IEnMin= 9 EnMin= -282.964883709504     IErMin= 9 ErrMin= 4.71D-06
 ErrMax= 4.71D-06  0.00D+00 EMaxC= 1.00D-01 BMatC= 9.04D-09 BMatP= 7.64D-08
 IDIUse=1 WtCom= 1.00D+00 WtEn= 0.00D+00
 Coeff-Com: -0.927D-05-0.872D-04-0.318D-03 0.240D-02 0.136D-01-0.193D-01
 Coeff-Com: -0.143D+00 0.134D+00 0.101D+01
 Coeff:     -0.927D-05-0.872D-04-0.318D-03 0.240D-02 0.136D-01-0.193D-01
 Coeff:     -0.143D+00 0.134D+00 0.101D+01
 Gap=     0.511 Goal=   None    Shift=    0.000
 RMSDP=3.76D-07 MaxDP=2.05D-05 DE=-2.21D-07 OVMax= 9.21D-05

 Cycle  10  Pass 1  IDiag  1:
 E= -282.964883730402     Delta-E=       -0.000000020898 Rises=F Damp=F
 DIIS: error= 1.78D-06 at cycle  10 NSaved=  10.
 NSaved=10 IEnMin=10 EnMin= -282.964883730402     IErMin=10 ErrMin= 1.78D-06
 ErrMax= 1.78D-06  0.00D+00 EMaxC= 1.00D-01 BMatC= 1.08D-09 BMatP= 9.04D-09
 IDIUse=1 WtCom= 1.00D+00 WtEn= 0.00D+00
 Coeff-Com:  0.250D-04-0.213D-03-0.789D-03-0.120D-02 0.398D-02 0.148D-01
 Coeff-Com:  0.400D-02-0.163D+00 0.105D+00 0.104D+01
 Coeff:      0.250D-04-0.213D-03-0.789D-03-0.120D-02 0.398D-02 0.148D-01
 Coeff:      0.400D-02-0.163D+00 0.105D+00 0.104D+01
 Gap=     0.511 Goal=   None    Shift=    0.000
 RMSDP=1.31D-07 MaxDP=6.98D-06 DE=-2.09D-08 OVMax= 2.65D-05

 Cycle  11  Pass 1  IDiag  1:
 E= -282.964883732702     Delta-E=       -0.000000002300 Rises=F Damp=F
 DIIS: error= 3.67D-07 at cycle  11 NSaved=  11.
 NSaved=11 IEnMin=11 EnMin= -282.964883732702     IErMin=11 ErrMin= 3.67D-07
 ErrMax= 3.67D-07  0.00D+00 EMaxC= 1.00D-01 BMatC= 7.48D-11 BMatP= 1.08D-09
 IDIUse=1 WtCom= 1.00D+00 WtEn= 0.00D+00
 Coeff-Com: -0.154D-07 0.110D-04 0.709D-04-0.158D-03-0.994D-03 0.156D-03
 Coeff-Com:  0.106D-01 0.465D-02-0.102D+00-0.922D-01 0.118D+01
 Coeff:     -0.154D-07 0.110D-04 0.709D-04-0.158D-03-0.994D-03 0.156D-03
 Coeff:      0.106D-01 0.465D-02-0.102D+00-0.922D-01 0.118D+01
 Gap=     0.511 Goal=   None    Shift=    0.000
 RMSDP=4.57D-08 MaxDP=3.65D-06 DE=-2.30D-09 OVMax= 5.77D-06

 Cycle  12  Pass 1  IDiag  1:
 E= -282.964883732861     Delta-E=       -0.000000000159 Rises=F Damp=F
 DIIS: error= 1.18D-07 at cycle  12 NSaved=  12.
 NSaved=12 IEnMin=12 EnMin= -282.964883732861     IErMin=12 ErrMin= 1.18D-07
 ErrMax= 1.18D-07  0.00D+00 EMaxC= 1.00D-01 BMatC= 3.78D-12 BMatP= 7.48D-11
 IDIUse=1 WtCom= 1.00D+00 WtEn= 0.00D+00
 Coeff-Com: -0.147D-05 0.116D-04 0.431D-04 0.740D-04-0.107D-03-0.104D-02
 Coeff-Com: -0.177D-02 0.122D-01 0.757D-03-0.601D-01-0.102D+00 0.115D+01
 Coeff:     -0.147D-05 0.116D-04 0.431D-04 0.740D-04-0.107D-03-0.104D-02
 Coeff:     -0.177D-02 0.122D-01 0.757D-03-0.601D-01-0.102D+00 0.115D+01
 Gap=     0.511 Goal=   None    Shift=    0.000
 RMSDP=1.01D-08 MaxDP=7.11D-07 DE=-1.59D-10 OVMax= 1.21D-06

 Cycle  13  Pass 1  IDiag  1:
 E= -282.964883732869     Delta-E=       -0.000000000007 Rises=F Damp=F
 DIIS: error= 2.35D-08 at cycle  13 NSaved=  13.
 NSaved=13 IEnMin=13 EnMin= -282.964883732869     IErMin=13 ErrMin= 2.35D-08
 ErrMax= 2.35D-08  0.00D+00 EMaxC= 1.00D-01 BMatC= 3.12D-13 BMatP= 3.78D-12
 IDIUse=1 WtCom= 1.00D+00 WtEn= 0.00D+00
 Coeff-Com:  0.956D-07-0.166D-05-0.820D-05 0.594D-05 0.101D-03 0.393D-04
 Coeff-Com: -0.935D-03-0.547D-03 0.779D-02 0.899D-02-0.926D-01-0.232D-02
 Coeff-Com:  0.108D+01
 Coeff:      0.956D-07-0.166D-05-0.820D-05 0.594D-05 0.101D-03 0.393D-04
 Coeff:     -0.935D-03-0.547D-03 0.779D-02 0.899D-02-0.926D-01-0.232D-02
 Coeff:      0.108D+01
 Gap=     0.511 Goal=   None    Shift=    0.000
 RMSDP=2.21D-09 MaxDP=1.02D-07 DE=-7.39D-12 OVMax= 3.10D-07

 SCF Done:  E(RHF) =  -282.964883733     A.U. after   13 cycles
            NFock= 13  Conv=0.22D-08     -V/T= 2.0010
 KE= 2.826746138358D+02 PE=-1.027693168605D+03 EE= 2.814617583771D+02
 Leave Link  502 at Fri Jan 15 13:43:52 2021, MaxMem= 13421772800 cpu:             672.8 elap:             128.5
 (Enter /data2/software/Gaussian/g16_c01-gpu/g16/l801.exe)
 ExpMin= 8.99D-02 ExpMax= 6.14D+04 ExpMxC= 5.91D+02 IAcc=3 IRadAn=         5 AccDes= 0.00D+00
 HarFok:  IExCor=  205 AccDes= 0.00D+00 IRadAn=         5 IDoV=-2 UseB2=F ITyADJ=14
 ICtDFT= 12500011 ScaDFX=  1.000000  1.000000  1.000000  1.000000
 DSYEVD-2 returned Info=          83 IAlg= 4 N=    55 NDim=    55 NE2=   244021963 trying  DSYEV.
 Largest valence mixing into a core orbital is  1.86D-04
 Largest core mixing into a valence orbital is  2.97D-05
 Range of M.O.s used for correlation:     6   425
 NBasis=   425 NAE=    20 NBE=    20 NFC=     5 NFV=     0
 NROrb=    420 NOA=    15 NOB=    15 NVA=   405 NVB=   405

 **** Warning!!: The largest alpha MO coefficient is  0.18869274D+02

 Leave Link  801 at Fri Jan 15 13:43:52 2021, MaxMem= 13421772800 cpu:               5.1 elap:               0.4
 (Enter /data2/software/Gaussian/g16_c01-gpu/g16/l906.exe)
 FulOut=F Deriv=F AODrv=F NAtomX=    10
   MMem=         244  MDisk=          15 MDiskD=          15
  W3Min=     3189375 MinDsk=     4853450 NBas6D=         525
 NBas2D=      139755    NTT=      138075    LW2=     4508827
    MDV= 13420932444 MDiskM=       56799 NBas2p=      132280
 Fully direct method using O(OVN) memory.
 IMap=   1   2   3   4   5   6   7   8   9  10  11  12  13  14  15
 JobTyp=1 Pass  1:  I=   1 to  15 NPSUse= 16 ParTrn=T ParDer=T DoDerP=F.
 Spin components of T(2) and E(2):
     alpha-alpha T2 =       0.3622914517D-01 E2=     -0.1320191857D+00
     alpha-beta  T2 =       0.2038717675D+00 E2=     -0.8184996702D+00
     beta-beta   T2 =       0.3622914517D-01 E2=     -0.1320191857D+00
 The integrals were generated   1 times.
 ANorm=    0.1129747785D+01
 E2 =    -0.1082538042D+01 EUMP2 =    -0.28404742177440D+03
 Leave Link  906 at Fri Jan 15 13:46:21 2021, MaxMem= 13421772800 cpu:            2379.1 elap:             148.6
 (Enter /data2/software/Gaussian/g16_c01-gpu/g16/l601.exe)
 Copying SCF densities to generalized density rwf, IOpCl= 0 IROHF=0.

 **********************************************************************

            Population analysis using the SCF Density.

 **********************************************************************

 Orbital symmetries:
       Occupied  (A) (A) (A) (A) (A) (A) (A) (A) (A) (A) (A) (A)
                 (A) (A) (A) (A) (A) (A) (A) (A)
       Virtual   (A) (A) (A) (A) (A) (A) (A) (A) (A) (A) (A) (A)
                 (A) (A) (A) (A) (A) (A) (A) (A) (A) (A) (A) (A)
                 (A) (A) (A) (A) (A) (A) (A) (A) (A) (A) (A) (A)
                 (A) (A) (A) (A) (A) (A) (A) (A) (A) (A) (A) (A)
                 (A) (A) (A) (A) (A) (A) (A) (A) (A) (A) (A) (A)
                 (A) (A) (A) (A) (A) (A) (A) (A) (A) (A) (A) (A)
                 (A) (A) (A) (A) (A) (A) (A) (A) (A) (A) (A) (A)
                 (A) (A) (A) (A) (A) (A) (A) (A) (A) (A) (A) (A)
                 (A) (A) (A) (A) (A) (A) (A) (A) (A) (A) (A) (A)
                 (A) (A) (A) (A) (A) (A) (A) (A) (A) (A) (A) (A)
                 (A) (A) (A) (A) (A) (A) (A) (A) (A) (A) (A) (A)
                 (A) (A) (A) (A) (A) (A) (A) (A) (A) (A) (A) (A)
                 (A) (A) (A) (A) (A) (A) (A) (A) (A) (A) (A) (A)
                 (A) (A) (A) (A) (A) (A) (A) (A) (A) (A) (A) (A)
                 (A) (A) (A) (A) (A) (A) (A) (A) (A) (A) (A) (A)
                 (A) (A) (A) (A) (A) (A) (A) (A) (A) (A) (A) (A)
                 (A) (A) (A) (A) (A) (A) (A) (A) (A) (A) (A) (A)
                 (A) (A) (A) (A) (A) (A) (A) (A) (A) (A) (A) (A)
                 (A) (A) (A) (A) (A) (A) (A) (A) (A) (A) (A) (A)
                 (A) (A) (A) (A) (A) (A) (A) (A) (A) (A) (A) (A)
                 (A) (A) (A) (A) (A) (A) (A) (A) (A) (A) (A) (A)
                 (A) (A) (A) (A) (A) (A) (A) (A) (A) (A) (A) (A)
                 (A) (A) (A) (A) (A) (A) (A) (A) (A) (A) (A) (A)
                 (A) (A) (A) (A) (A) (A) (A) (A) (A) (A) (A) (A)
                 (A) (A) (A) (A) (A) (A) (A) (A) (A) (A) (A) (A)
                 (A) (A) (A) (A) (A) (A) (A) (A) (A) (A) (A) (A)
                 (A) (A) (A) (A) (A) (A) (A) (A) (A) (A) (A) (A)
                 (A) (A) (A) (A) (A) (A) (A) (A) (A) (A) (A) (A)
                 (A) (A) (A) (A) (A) (A) (A) (A) (A) (A) (A) (A)
                 (A) (A) (A) (A) (A) (A) (A) (A) (A) (A) (A) (A)
                 (A) (A) (A) (A) (A) (A) (A) (A) (A) (A) (A) (A)
                 (A) (A) (A) (A) (A) (A) (A) (A) (A) (A) (A) (A)
                 (A) (A) (A) (A) (A) (A) (A) (A) (A) (A) (A) (A)
                 (A) (A) (A) (A) (A) (A) (A) (A) (A)
 The electronic state is 1-A.
 Alpha  occ. eigenvalues --  -20.61419 -20.54790 -15.55368 -11.38592 -11.27658
 Alpha  occ. eigenvalues --   -1.47108  -1.36574  -1.19891  -0.97794  -0.82827
 Alpha  occ. eigenvalues --   -0.71643  -0.69013  -0.67069  -0.64928  -0.60099
 Alpha  occ. eigenvalues --   -0.58479  -0.55874  -0.48927  -0.45978  -0.40722
 Alpha virt. eigenvalues --    0.10380   0.13177   0.15184   0.16046   0.17707
 Alpha virt. eigenvalues --    0.20227   0.24943   0.26844   0.30058   0.33337
 Alpha virt. eigenvalues --    0.35134   0.36696   0.38118   0.40198   0.43706
 Alpha virt. eigenvalues --    0.45129   0.46892   0.48015   0.48780   0.49943
 Alpha virt. eigenvalues --    0.53432   0.55379   0.56023   0.56209   0.58315
 Alpha virt. eigenvalues --    0.59552   0.61469   0.62373   0.64555   0.67288
 Alpha virt. eigenvalues --    0.69000   0.72245   0.73033   0.74345   0.78707
 Alpha virt. eigenvalues --    0.82684   0.84840   0.87261   0.88885   0.91206
 Alpha virt. eigenvalues --    0.92106   0.94761   0.96486   0.98138   1.01930
 Alpha virt. eigenvalues --    1.03061   1.05974   1.08087   1.09222   1.11022
 Alpha virt. eigenvalues --    1.11616   1.13168   1.15120   1.17696   1.18945
 Alpha virt. eigenvalues --    1.19357   1.24363   1.26403   1.29940   1.32611
 Alpha virt. eigenvalues --    1.34735   1.36559   1.40102   1.42211   1.43784
 Alpha virt. eigenvalues --    1.48609   1.49351   1.54127   1.58832   1.60819
 Alpha virt. eigenvalues --    1.63606   1.66309   1.68488   1.69802   1.71128
 Alpha virt. eigenvalues --    1.73406   1.79609   1.79982   1.83750   1.85770
 Alpha virt. eigenvalues --    1.89420   1.93578   1.97495   1.97585   1.99202
 Alpha virt. eigenvalues --    2.01601   2.05942   2.07294   2.10555   2.13768
 Alpha virt. eigenvalues --    2.14324   2.16573   2.19511   2.21178   2.23253
 Alpha virt. eigenvalues --    2.29206   2.30345   2.33140   2.34575   2.36368
 Alpha virt. eigenvalues --    2.38608   2.40817   2.43425   2.45791   2.47539
 Alpha virt. eigenvalues --    2.48019   2.49307   2.52788   2.54929   2.55976
 Alpha virt. eigenvalues --    2.57888   2.58891   2.59746   2.63104   2.64233
 Alpha virt. eigenvalues --    2.68891   2.70426   2.71002   2.73629   2.75936
 Alpha virt. eigenvalues --    2.79230   2.80143   2.81413   2.85192   2.86885
 Alpha virt. eigenvalues --    2.90693   2.92417   2.94103   2.96906   2.98923
 Alpha virt. eigenvalues --    3.03219   3.04338   3.04783   3.09423   3.12425
 Alpha virt. eigenvalues --    3.15973   3.21764   3.22110   3.25818   3.30071
 Alpha virt. eigenvalues --    3.31820   3.33227   3.35739   3.37845   3.41812
 Alpha virt. eigenvalues --    3.43920   3.47433   3.48530   3.53303   3.55797
 Alpha virt. eigenvalues --    3.58180   3.60562   3.61941   3.62978   3.68653
 Alpha virt. eigenvalues --    3.70585   3.76449   3.80951   3.82318   3.85869
 Alpha virt. eigenvalues --    3.88912   3.91368   3.95636   3.98709   4.03140
 Alpha virt. eigenvalues --    4.05279   4.07135   4.11239   4.14164   4.15963
 Alpha virt. eigenvalues --    4.17874   4.20787   4.24066   4.28080   4.30644
 Alpha virt. eigenvalues --    4.33126   4.36017   4.38679   4.42121   4.44432
 Alpha virt. eigenvalues --    4.50615   4.51636   4.55475   4.59828   4.61181
 Alpha virt. eigenvalues --    4.65100   4.69371   4.71488   4.74223   4.75981
 Alpha virt. eigenvalues --    4.81131   4.86130   4.95562   4.99101   5.04012
 Alpha virt. eigenvalues --    5.07702   5.17250   5.30070   5.43372   5.48485
 Alpha virt. eigenvalues --    5.54303   5.59238   5.65234   5.79011   5.82933
 Alpha virt. eigenvalues --    5.85074   5.87029   5.89094   5.92209   5.95239
 Alpha virt. eigenvalues --    5.99375   6.01860   6.05312   6.07762   6.10714
 Alpha virt. eigenvalues --    6.14809   6.17777   6.21495   6.22317   6.25029
 Alpha virt. eigenvalues --    6.26977   6.32028   6.35655   6.37453   6.38815
 Alpha virt. eigenvalues --    6.42392   6.42584   6.47454   6.47746   6.52379
 Alpha virt. eigenvalues --    6.54409   6.57895   6.61963   6.63461   6.68265
 Alpha virt. eigenvalues --    6.71850   6.74593   6.80554   6.82320   6.85580
 Alpha virt. eigenvalues --    6.93322   6.96198   6.99471   7.00568   7.03588
 Alpha virt. eigenvalues --    7.07514   7.10756   7.16639   7.18050   7.22189
 Alpha virt. eigenvalues --    7.26695   7.28804   7.30267   7.36126   7.38063
 Alpha virt. eigenvalues --    7.40815   7.41711   7.46491   7.49105   7.51251
 Alpha virt. eigenvalues --    7.54790   7.59677   7.60473   7.64239   7.70958
 Alpha virt. eigenvalues --    7.73354   7.75426   7.77531   7.78844   7.85405
 Alpha virt. eigenvalues --    7.88564   7.90842   7.92568   7.97343   7.99790
 Alpha virt. eigenvalues --    8.01781   8.07019   8.09540   8.12978   8.16095
 Alpha virt. eigenvalues --    8.18931   8.20178   8.22515   8.24256   8.27061
 Alpha virt. eigenvalues --    8.29453   8.33200   8.35005   8.35363   8.37491
 Alpha virt. eigenvalues --    8.39159   8.46709   8.49608   8.52896   8.56999
 Alpha virt. eigenvalues --    8.60778   8.61756   8.63204   8.68437   8.70554
 Alpha virt. eigenvalues --    8.75699   8.81207   8.82739   8.83380   8.85835
 Alpha virt. eigenvalues --    8.90029   8.91587   8.93655   8.95177   9.00931
 Alpha virt. eigenvalues --    9.04078   9.10842   9.11144   9.14972   9.17849
 Alpha virt. eigenvalues --    9.24556   9.27153   9.31248   9.34313   9.36694
 Alpha virt. eigenvalues --    9.38065   9.38666   9.40782   9.57164   9.59090
 Alpha virt. eigenvalues --    9.62183   9.66083   9.67150   9.72883   9.77806
 Alpha virt. eigenvalues --    9.82228   9.88563   9.94317  10.10944  10.17570
 Alpha virt. eigenvalues --   10.22272  10.27548  10.27956  10.32013  10.36951
 Alpha virt. eigenvalues --   10.41882  10.43335  10.49464  10.50093  10.51896
 Alpha virt. eigenvalues --   10.56740  10.60265  10.64031  10.70591  10.76140
 Alpha virt. eigenvalues --   10.79177  10.83228  10.89459  10.93745  10.98038
 Alpha virt. eigenvalues --   10.98995  11.05542  11.14183  11.24612  11.32185
 Alpha virt. eigenvalues --   11.45806  11.48837  11.59368  11.60347  11.62737
 Alpha virt. eigenvalues --   11.65551  11.88928  11.90230  11.94235  11.98966
 Alpha virt. eigenvalues --   12.04938  12.10441  12.15750  12.19006  12.27919
 Alpha virt. eigenvalues --   12.28350  12.32850  12.33558  12.44469  12.47213
 Alpha virt. eigenvalues --   12.60360  12.73089  12.77127  12.78272  12.80292
 Alpha virt. eigenvalues --   12.88359  12.93820  13.04225  13.19104  13.43922
 Alpha virt. eigenvalues --   13.65045  13.92573  14.05712  14.29014  14.38502
 Alpha virt. eigenvalues --   14.45646  14.56862  14.71018  14.76054  16.75630
 Alpha virt. eigenvalues --   24.90813  26.74584  34.76234  43.01846  44.10175
          Condensed to atoms (all electrons):
               1          2          3          4          5          6
     1  C    4.064988   0.416583   0.711987  -0.043997   0.371260  -0.030324
     2  O    0.416583   7.860688  -0.091629   0.318567  -0.088016  -0.011460
     3  O    0.711987  -0.091629   7.907021   0.011960  -0.077861   0.003700
     4  H   -0.043997   0.318567   0.011960   0.433935   0.015726  -0.000859
     5  C    0.371260  -0.088016  -0.077861   0.015726   4.731399   0.319510
     6  N   -0.030324  -0.011460   0.003700  -0.000859   0.319510   6.446308
     7  H   -0.048962  -0.000278   0.001480  -0.001018   0.414379  -0.102985
     8  H   -0.023216   0.003820   0.003136  -0.000601   0.410427  -0.022384
     9  H    0.004949  -0.000068  -0.000400   0.000161  -0.032884   0.405439
    10  H   -0.006619   0.010862   0.000331  -0.000927  -0.037540   0.400658
               7          8          9         10
     1  C   -0.048962  -0.023216   0.004949  -0.006619
     2  O   -0.000278   0.003820  -0.000068   0.010862
     3  O    0.001480   0.003136  -0.000400   0.000331
     4  H   -0.001018  -0.000601   0.000161  -0.000927
     5  C    0.414379   0.410427  -0.032884  -0.037540
     6  N   -0.102985  -0.022384   0.405439   0.400658
     7  H    0.745459  -0.042403  -0.006434  -0.002594
     8  H   -0.042403   0.552762  -0.006055   0.006439
     9  H   -0.006434  -0.006055   0.523343  -0.035805
    10  H   -0.002594   0.006439  -0.035805   0.501986
 Mulliken charges:
               1
     1  C    0.583351
     2  O   -0.419068
     3  O   -0.469724
     4  H    0.267053
     5  C   -0.026401
     6  N   -0.407603
     7  H    0.043355
     8  H    0.118074
     9  H    0.147755
    10  H    0.163208
 Sum of Mulliken charges =  -0.00000
 Mulliken charges with hydrogens summed into heavy atoms:
               1
     1  C    0.583351
     2  O   -0.152015
     3  O   -0.469724
     5  C    0.135028
     6  N   -0.096640
 Electronic spatial extent (au):  <R**2>=            409.8556
 Charge=             -0.0000 electrons
 Dipole moment (field-independent basis, Debye):
    X=             -1.8946    Y=              1.1255    Z=              1.5888  Tot=              2.7168
 Quadrupole moment (field-independent basis, Debye-Ang):
   XX=            -28.3478   YY=            -28.5440   ZZ=            -30.9128
   XY=              6.1624   XZ=             -1.9248   YZ=             -0.2842
 Traceless Quadrupole moment (field-independent basis, Debye-Ang):
   XX=              0.9204   YY=              0.7242   ZZ=             -1.6446
   XY=              6.1624   XZ=             -1.9248   YZ=             -0.2842
 Octapole moment (field-independent basis, Debye-Ang**2):
  XXX=            -11.5171  YYY=              6.8758  ZZZ=              2.4685  XYY=              0.5965
  XXY=             11.5642  XXZ=              4.7698  XZZ=              4.2667  YZZ=             -0.0129
  YYZ=             -0.5372  XYZ=             -1.9977
 Hexadecapole moment (field-independent basis, Debye-Ang**3):
 XXXX=           -278.1492 YYYY=           -129.4236 ZZZZ=            -43.1340 XXXY=             24.4208
 XXXZ=             -5.0442 YYYX=             10.7725 YYYZ=              1.5090 ZZZX=             -4.7963
 ZZZY=              0.4225 XXYY=            -63.1132 XXZZ=            -65.7788 YYZZ=            -30.7450
 XXYZ=              0.5943 YYXZ=             -0.7480 ZZXY=              1.4962
 N-N= 1.805919126595D+02 E-N=-1.027693166485D+03  KE= 2.826746138358D+02
 Leave Link  601 at Fri Jan 15 13:46:22 2021, MaxMem= 13421772800 cpu:               4.8 elap:               0.5
 (Enter /data2/software/Gaussian/g16_c01-gpu/g16/l9999.exe)
 Unable to Open any file for archive entry.
 1\1\GINC-CU05\SP\RMP2-FC\CC-pVQZ\C2H5N1O2\SHUCHONG\15-Jan-2021\0\\#p M
 P2 cc-pVQZ\\start best geom PCCP paper\\0,1\C\O,1,1.3486\O,1,1.20239,2
 ,122.85413\H,2,0.965152,1,106.77622,3,0.858776,0\C,1,1.50625,3,125.067
 26,2,-176.8326,0\N,5,1.45443,1,111.81084,3,-146.04703,0\H,5,1.09773,1,
 105.69489,3,88.80239,0\H,5,1.08654,1,106.9966,3,-25.78313,0\H,6,1.0098
 9,5,110.58167,1,-178.47161,0\H,6,1.01063,5,111.13985,1,-58.48891,0\\Ve
 rsion=AM64L-G16RevC.01\State=1-A\HF=-282.9648837\MP2=-284.0474218\RMSD
 =2.212e-09\PG=C01 [X(C2H5N1O2)]\\@
 The archive entry for this job was punched.


 IF MATHEMATICALLY YOU END UP WITH THE INCORRECT ANSWER,
 TRY MULTIPLYING BY THE PAGE NUMBER.
 Job cpu time:       0 days  0 hours 51 minutes 59.2 seconds.
 Elapsed time:       0 days  0 hours  4 minutes 42.1 seconds.
 File lengths (MBytes):  RWF=     72 Int=      0 D2E=      0 Chk=     13 Scr=      1
 Normal termination of Gaussian 16 at Fri Jan 15 13:46:22 2021.
