 Entering Gaussian System, Link 0=g16
 Input=gtt_Best_geom_MP2_cc-pVQZ.gjf
 Output=gtt_Best_geom_MP2_cc-pVQZ.log
 Initial command:
 /data2/software/Gaussian/g16_c01-gpu/g16/l1.exe "/home/shuchong/scratch/Gau-4928.inp" -scrdir="/home/shuchong/scratch/"
 Entering Link 1 = /data2/software/Gaussian/g16_c01-gpu/g16/l1.exe PID=      4929.
  
 Copyright (c) 1988-2019, Gaussian, Inc.  All Rights Reserved.
  
 This is part of the Gaussian(R) 16 program.  It is based on
 the Gaussian(R) 09 system (copyright 2009, Gaussian, Inc.),
 the Gaussian(R) 03 system (copyright 2003, Gaussian, Inc.),
 the Gaussian(R) 98 system (copyright 1998, Gaussian, Inc.),
 the Gaussian(R) 94 system (copyright 1995, Gaussian, Inc.),
 the Gaussian 92(TM) system (copyright 1992, Gaussian, Inc.),
 the Gaussian 90(TM) system (copyright 1990, Gaussian, Inc.),
 the Gaussian 88(TM) system (copyright 1988, Gaussian, Inc.),
 the Gaussian 86(TM) system (copyright 1986, Carnegie Mellon
 University), and the Gaussian 82(TM) system (copyright 1983,
 Carnegie Mellon University). Gaussian is a federally registered
 trademark of Gaussian, Inc.
  
 This software contains proprietary and confidential information,
 including trade secrets, belonging to Gaussian, Inc.
  
 This software is provided under written license and may be
 used, copied, transmitted, or stored only in accord with that
 written license.
  
 The following legend is applicable only to US Government
 contracts under FAR:
  
                    RESTRICTED RIGHTS LEGEND
  
 Use, reproduction and disclosure by the US Government is
 subject to restrictions as set forth in subparagraphs (a)
 and (c) of the Commercial Computer Software - Restricted
 Rights clause in FAR 52.227-19.
  
 Gaussian, Inc.
 340 Quinnipiac St., Bldg. 40, Wallingford CT 06492
  
  
 ---------------------------------------------------------------
 Warning -- This program may not be used in any manner that
 competes with the business of Gaussian, Inc. or will provide
 assistance to any competitor of Gaussian, Inc.  The licensee
 of this program is prohibited from giving any competitor of
 Gaussian, Inc. access to this program.  By using this program,
 the user acknowledges that Gaussian, Inc. is engaged in the
 business of creating and licensing software in the field of
 computational chemistry and represents and warrants to the
 licensee that it is not a competitor of Gaussian, Inc. and that
 it will not use this program in any manner prohibited above.
 ---------------------------------------------------------------
  

 Cite this work as:
 Gaussian 16, Revision C.01,
 M. J. Frisch, G. W. Trucks, H. B. Schlegel, G. E. Scuseria, 
 M. A. Robb, J. R. Cheeseman, G. Scalmani, V. Barone, 
 G. A. Petersson, H. Nakatsuji, X. Li, M. Caricato, A. V. Marenich, 
 J. Bloino, B. G. Janesko, R. Gomperts, B. Mennucci, H. P. Hratchian, 
 J. V. Ortiz, A. F. Izmaylov, J. L. Sonnenberg, D. Williams-Young, 
 F. Ding, F. Lipparini, F. Egidi, J. Goings, B. Peng, A. Petrone, 
 T. Henderson, D. Ranasinghe, V. G. Zakrzewski, J. Gao, N. Rega, 
 G. Zheng, W. Liang, M. Hada, M. Ehara, K. Toyota, R. Fukuda, 
 J. Hasegawa, M. Ishida, T. Nakajima, Y. Honda, O. Kitao, H. Nakai, 
 T. Vreven, K. Throssell, J. A. Montgomery, Jr., J. E. Peralta, 
 F. Ogliaro, M. J. Bearpark, J. J. Heyd, E. N. Brothers, K. N. Kudin, 
 V. N. Staroverov, T. A. Keith, R. Kobayashi, J. Normand, 
 K. Raghavachari, A. P. Rendell, J. C. Burant, S. S. Iyengar, 
 J. Tomasi, M. Cossi, J. M. Millam, M. Klene, C. Adamo, R. Cammi, 
 J. W. Ochterski, R. L. Martin, K. Morokuma, O. Farkas, 
 J. B. Foresman, and D. J. Fox, Gaussian, Inc., Wallingford CT, 2019.
 
 ******************************************
 Gaussian 16:  AM64L-G16RevC.01  3-Jul-2019
                15-Jan-2021 
 ******************************************
 %chk=gtt_Best_geom_MP2_cc-pVQZ.chk
 %nprocshared=16
 Will use up to   16 processors via shared memory.
 %mem=100GB
 --------------
 #p MP2 cc-pVQZ
 --------------
 1/38=1,172=1/1;
 2/12=2,17=6,18=5,40=1/2;
 3/5=16,6=2,11=9,25=1,30=1/1,2,3;
 4//1;
 5/5=2,38=5/2;
 8/10=1/1;
 9/16=-3/6;
 6/7=2,8=2,9=2,10=2/1;
 99/5=1,9=1/99;
 Leave Link    1 at Fri Jan 15 13:53:12 2021, MaxMem= 13421772800 cpu:               1.3 elap:               0.1
 (Enter /data2/software/Gaussian/g16_c01-gpu/g16/l101.exe)
 --------------------------
 start best geom PCCP paper
 --------------------------
 Symbolic Z-matrix:
 Charge =  0 Multiplicity = 1
 C
 O                    1    B1
 O                    1    B2       2    A1
 H                    2    B3       1    A2       3    D1       0
 C                    1    B4       3    A3       2    D2       0
 N                    5    B5       1    A4       3    D3       0
 H                    5    B6       1    A5       3    D4       0
 H                    5    B7       1    A6       3    D5       0
 H                    6    B8       5    A7       1    D6       0
 H                    6    B9       5    A8       1    D7       0
       Variables:
  B1                    1.34608                  
  B2                    1.20274                  
  B3                    0.96513                  
  B4                    1.50353                  
  B5                    1.44879                  
  B6                    1.09682                  
  B7                    1.08963                  
  B8                    1.00859                  
  B9                    1.01187                  
  A1                  123.21263                  
  A2                  106.9601                   
  A3                  125.17128                  
  A4                  110.05161                  
  A5                  105.6396                   
  A6                  108.30581                  
  A7                  111.64684                  
  A8                  110.28053                  
  D1                    1.12063                  
  D2                  178.03326                  
  D3                   18.04528                  
  D4                 -106.18775                  
  D5                  139.44601                  
  D6                 -155.36007                  
  D7                  -34.31555                  
 
 ITRead=  0  0  0  0  0  0  0  0  0  0
 MicOpt= -1 -1 -1 -1 -1 -1 -1 -1 -1 -1
 NAtoms=     10 NQM=       10 NQMF=       0 NMMI=      0 NMMIF=      0
                NMic=       0 NMicF=      0.
                    Isotopes and Nuclear Properties:
 (Nuclear quadrupole moments (NQMom) in fm**2, nuclear magnetic moments (NMagM)
  in nuclear magnetons)

  Atom         1           2           3           4           5           6           7           8           9          10
 IAtWgt=          12          16          16           1          12          14           1           1           1           1
 AtmWgt=  12.0000000  15.9949146  15.9949146   1.0078250  12.0000000  14.0030740   1.0078250   1.0078250   1.0078250   1.0078250
 NucSpn=           0           0           0           1           0           2           1           1           1           1
 AtZEff=  -0.0000000  -0.0000000  -0.0000000  -0.0000000  -0.0000000  -0.0000000  -0.0000000  -0.0000000  -0.0000000  -0.0000000
 NQMom=    0.0000000   0.0000000   0.0000000   0.0000000   0.0000000   2.0440000   0.0000000   0.0000000   0.0000000   0.0000000
 NMagM=    0.0000000   0.0000000   0.0000000   2.7928460   0.0000000   0.4037610   2.7928460   2.7928460   2.7928460   2.7928460
 AtZNuc=   6.0000000   8.0000000   8.0000000   1.0000000   6.0000000   7.0000000   1.0000000   1.0000000   1.0000000   1.0000000
 Leave Link  101 at Fri Jan 15 13:53:12 2021, MaxMem= 13421772800 cpu:               1.8 elap:               0.1
 (Enter /data2/software/Gaussian/g16_c01-gpu/g16/l202.exe)
                          Input orientation:                          
 ---------------------------------------------------------------------
 Center     Atomic      Atomic             Coordinates (Angstroms)
 Number     Number       Type             X           Y           Z
 ---------------------------------------------------------------------
      1          6           0        0.000000    0.000000    0.000000
      2          8           0        0.000000    0.000000    1.346080
      3          8           0        1.006265    0.000000   -0.658798
      4          1           0        0.922978    0.018055    1.627614
      5          6           0       -1.397395    0.042180   -0.553273
      6          7           0       -1.390055   -0.339641   -1.950825
      7          1           0       -1.761669    1.058393   -0.359291
      8          1           0       -2.017816   -0.635948    0.031974
      9          1           0       -2.181188    0.043508   -2.445353
     10          1           0       -0.540559   -0.019158   -2.397512
 ---------------------------------------------------------------------
                    Distance matrix (angstroms):
                    1          2          3          4          5
     1  C    0.000000
     2  O    1.346080   0.000000
     3  O    1.202740   2.243235   0.000000
     4  H    1.871187   0.965130   2.288000   0.000000
     5  C    1.503530   2.358396   2.406344   3.184491   0.000000
     6  N    2.419365   3.594049   2.743544   4.275897   1.448790
     7  H    2.086328   2.670574   2.978483   3.498203   1.096820
     8  H    2.115900   2.490560   3.166490   3.409114   1.089630
     9  H    3.277076   4.374293   3.654248   5.121089   2.047999
    10  H    2.457770   3.782466   2.327263   4.283102   2.034489
                    6          7          8          9         10
     6  N    0.000000
     7  H    2.150715   0.000000
     8  H    2.100803   1.757695   0.000000
     9  H    1.008590   2.357465   2.574004   0.000000
    10  H    1.011870   2.608940   2.909487   1.642523   0.000000
 Stoichiometry    C2H5NO2
 Framework group  C1[X(C2H5NO2)]
 Deg. of freedom    24
 Full point group                 C1      NOp   1
 Largest Abelian subgroup         C1      NOp   1
 Largest concise Abelian subgroup C1      NOp   1
                         Standard orientation:                         
 ---------------------------------------------------------------------
 Center     Atomic      Atomic             Coordinates (Angstroms)
 Number     Number       Type             X           Y           Z
 ---------------------------------------------------------------------
      1          6           0        0.533710    0.102893    0.014867
      2          8           0        1.632185   -0.670799   -0.066880
      3          8           0        0.575034    1.304539    0.045254
      4          1           0        2.393950   -0.078239   -0.074783
      5          6           0       -0.719436   -0.723120    0.103930
      6          7           0       -1.876755    0.096522   -0.192365
      7          1           0       -0.714656   -1.160119    1.109923
      8          1           0       -0.636201   -1.548521   -0.602525
      9          1           0       -2.714348   -0.276671    0.227657
     10          1           0       -1.734852    1.039339    0.146516
 ---------------------------------------------------------------------
 Rotational constants (GHZ):          10.4739593           4.0016078           2.9777418
 Leave Link  202 at Fri Jan 15 13:53:12 2021, MaxMem= 13421772800 cpu:               0.1 elap:               0.0
 (Enter /data2/software/Gaussian/g16_c01-gpu/g16/l301.exe)
 Standard basis: CC-pVQZ (5D, 7F)
 Ernie: Thresh=  0.10000D-02 Tol=  0.10000D-05 Strict=F.
 Ernie:  15 primitive shells out of 225 were deleted.
 There are   525 symmetry adapted cartesian basis functions of A   symmetry.
 There are   425 symmetry adapted basis functions of A   symmetry.
   425 basis functions,   630 primitive gaussians,   525 cartesian basis functions
    20 alpha electrons       20 beta electrons
       nuclear repulsion energy       180.5543247289 Hartrees.
 IExCor=    0 DFT=F Ex=HF Corr=None ExCW=0 ScaHFX=  1.000000
 ScaDFX=  1.000000  1.000000  1.000000  1.000000 ScalE2=  1.000000  1.000000
 IRadAn=      5 IRanWt=     -1 IRanGd=            0 ICorTp=0 IEmpDi=  4
 NAtoms=   10 NActive=   10 NUniq=   10 SFac= 1.00D+00 NAtFMM=   60 NAOKFM=F Big=F
 Integral buffers will be    131072 words long.
 Raffenetti 1 integral format.
 Two-electron integral symmetry is turned on.
 Leave Link  301 at Fri Jan 15 13:53:12 2021, MaxMem= 13421772800 cpu:               0.7 elap:               0.1
 (Enter /data2/software/Gaussian/g16_c01-gpu/g16/l302.exe)
 NPDir=0 NMtPBC=     1 NCelOv=     1 NCel=       1 NClECP=     1 NCelD=      1
         NCelK=      1 NCelE2=     1 NClLst=     1 CellRange=     0.0.
 One-electron integrals computed using PRISM.
 One-electron integral symmetry used in STVInt
 NBasis=   425 RedAO= T EigKep=  9.50D-05  NBF=   425
 NBsUse=   425 1.00D-06 EigRej= -1.00D+00 NBFU=   425
 Leave Link  302 at Fri Jan 15 13:53:13 2021, MaxMem= 13421772800 cpu:              11.4 elap:               0.8
 (Enter /data2/software/Gaussian/g16_c01-gpu/g16/l303.exe)
 DipDrv:  MaxL=1.
 Leave Link  303 at Fri Jan 15 13:53:13 2021, MaxMem= 13421772800 cpu:               0.7 elap:               0.1
 (Enter /data2/software/Gaussian/g16_c01-gpu/g16/l401.exe)
 ExpMin= 8.99D-02 ExpMax= 6.14D+04 ExpMxC= 5.91D+02 IAcc=3 IRadAn=         5 AccDes= 0.00D+00
 Harris functional with IExCor=  205 and IRadAn=       5 diagonalized for initial guess.
 HarFok:  IExCor=  205 AccDes= 0.00D+00 IRadAn=         5 IDoV= 1 UseB2=F ITyADJ=14
 ICtDFT=  3500011 ScaDFX=  1.000000  1.000000  1.000000  1.000000
 FoFCou: FMM=F IPFlag=           0 FMFlag=      100000 FMFlg1=           0
         NFxFlg=           0 DoJE=T BraDBF=F KetDBF=T FulRan=T
         wScrn=  0.000000 ICntrl=       500 IOpCl=  0 I1Cent=   200000004 NGrid=           0
         NMat0=    1 NMatS0=      1 NMatT0=    0 NMatD0=    1 NMtDS0=    0 NMtDT0=    0
 Petite list used in FoFCou.
 Harris En= -283.248218903645    
 JPrj=0 DoOrth=F DoCkMO=F.
 Leave Link  401 at Fri Jan 15 13:53:15 2021, MaxMem= 13421772800 cpu:              26.6 elap:               1.7
 (Enter /data2/software/Gaussian/g16_c01-gpu/g16/l502.exe)
 Keep R1 ints in memory in canonical form, NReq=4170200836.
 FoFCou: FMM=F IPFlag=           0 FMFlag=           0 FMFlg1=           0
         NFxFlg=           0 DoJE=F BraDBF=F KetDBF=F FulRan=T
         wScrn=  0.000000 ICntrl=       600 IOpCl=  0 I1Cent=           0 NGrid=           0
         NMat0=    1 NMatS0=  90525 NMatT0=    0 NMatD0=    1 NMtDS0=    0 NMtDT0=    0
 Symmetry not used in FoFCou.
 Two-electron integral symmetry not used.
 Closed shell SCF:
 Using DIIS extrapolation, IDIIS=  1040.
 NGot= 13421772800 LenX=  9323775669 LenY=  9323499519
 Requested convergence on RMS density matrix=1.00D-08 within 128 cycles.
 Requested convergence on MAX density matrix=1.00D-06.
 Requested convergence on             energy=1.00D-06.
 No special actions if energy rises.

 Cycle   1  Pass 1  IDiag  1:
 E= -282.725135344174    
 DIIS: error= 2.08D-02 at cycle   1 NSaved=   1.
 NSaved= 1 IEnMin= 1 EnMin= -282.725135344174     IErMin= 1 ErrMin= 2.08D-02
 ErrMax= 2.08D-02  0.00D+00 EMaxC= 1.00D-01 BMatC= 6.50D-01 BMatP= 6.50D-01
 IDIUse=3 WtCom= 7.92D-01 WtEn= 2.08D-01
 Coeff-Com:  0.100D+01
 Coeff-En:   0.100D+01
 Coeff:      0.100D+01
 Gap=     0.505 Goal=   None    Shift=    0.000
 GapD=    0.505 DampG=2.000 DampE=0.500 DampFc=1.0000 IDamp=-1.
 RMSDP=1.12D-03 MaxDP=8.23D-02              OVMax= 1.18D-01

 Cycle   2  Pass 1  IDiag  1:
 E= -282.912007388355     Delta-E=       -0.186872044182 Rises=F Damp=F
 DIIS: error= 1.12D-02 at cycle   2 NSaved=   2.
 NSaved= 2 IEnMin= 2 EnMin= -282.912007388355     IErMin= 2 ErrMin= 1.12D-02
 ErrMax= 1.12D-02  0.00D+00 EMaxC= 1.00D-01 BMatC= 8.08D-02 BMatP= 6.50D-01
 IDIUse=3 WtCom= 8.88D-01 WtEn= 1.12D-01
 Coeff-Com:  0.188D+00 0.812D+00
 Coeff-En:   0.000D+00 0.100D+01
 Coeff:      0.167D+00 0.833D+00
 Gap=     0.547 Goal=   None    Shift=    0.000
 RMSDP=6.24D-04 MaxDP=4.29D-02 DE=-1.87D-01 OVMax= 5.71D-02

 Cycle   3  Pass 1  IDiag  1:
 E= -282.959537007055     Delta-E=       -0.047529618700 Rises=F Damp=F
 DIIS: error= 5.45D-03 at cycle   3 NSaved=   3.
 NSaved= 3 IEnMin= 3 EnMin= -282.959537007055     IErMin= 3 ErrMin= 5.45D-03
 ErrMax= 5.45D-03  0.00D+00 EMaxC= 1.00D-01 BMatC= 1.11D-02 BMatP= 8.08D-02
 IDIUse=3 WtCom= 9.45D-01 WtEn= 5.45D-02
 Coeff-Com: -0.231D-01 0.242D+00 0.781D+00
 Coeff-En:   0.000D+00 0.000D+00 0.100D+01
 Coeff:     -0.218D-01 0.229D+00 0.793D+00
 Gap=     0.514 Goal=   None    Shift=    0.000
 RMSDP=1.05D-04 MaxDP=6.32D-03 DE=-4.75D-02 OVMax= 2.59D-02

 Cycle   4  Pass 1  IDiag  1:
 E= -282.966534770591     Delta-E=       -0.006997763535 Rises=F Damp=F
 DIIS: error= 1.08D-03 at cycle   4 NSaved=   4.
 NSaved= 4 IEnMin= 4 EnMin= -282.966534770591     IErMin= 4 ErrMin= 1.08D-03
 ErrMax= 1.08D-03  0.00D+00 EMaxC= 1.00D-01 BMatC= 3.99D-04 BMatP= 1.11D-02
 IDIUse=3 WtCom= 9.89D-01 WtEn= 1.08D-02
 Coeff-Com: -0.105D-01 0.558D-01 0.252D+00 0.703D+00
 Coeff-En:   0.000D+00 0.000D+00 0.000D+00 0.100D+01
 Coeff:     -0.104D-01 0.552D-01 0.249D+00 0.706D+00
 Gap=     0.511 Goal=   None    Shift=    0.000
 RMSDP=3.15D-05 MaxDP=2.36D-03 DE=-7.00D-03 OVMax= 5.01D-03

 Cycle   5  Pass 1  IDiag  1:
 E= -282.966867488667     Delta-E=       -0.000332718076 Rises=F Damp=F
 DIIS: error= 5.20D-04 at cycle   5 NSaved=   5.
 NSaved= 5 IEnMin= 5 EnMin= -282.966867488667     IErMin= 5 ErrMin= 5.20D-04
 ErrMax= 5.20D-04  0.00D+00 EMaxC= 1.00D-01 BMatC= 2.92D-05 BMatP= 3.99D-04
 IDIUse=3 WtCom= 9.95D-01 WtEn= 5.20D-03
 Coeff-Com:  0.206D-02-0.246D-01-0.826D-01 0.449D-01 0.106D+01
 Coeff-En:   0.000D+00 0.000D+00 0.000D+00 0.000D+00 0.100D+01
 Coeff:      0.205D-02-0.245D-01-0.821D-01 0.447D-01 0.106D+01
 Gap=     0.512 Goal=   None    Shift=    0.000
 RMSDP=1.94D-05 MaxDP=1.12D-03 DE=-3.33D-04 OVMax= 3.69D-03

 Cycle   6  Pass 1  IDiag  1:
 E= -282.966920522005     Delta-E=       -0.000053033338 Rises=F Damp=F
 DIIS: error= 9.97D-05 at cycle   6 NSaved=   6.
 NSaved= 6 IEnMin= 6 EnMin= -282.966920522005     IErMin= 6 ErrMin= 9.97D-05
 ErrMax= 9.97D-05  0.00D+00 EMaxC= 1.00D-01 BMatC= 3.93D-06 BMatP= 2.92D-05
 IDIUse=1 WtCom= 1.00D+00 WtEn= 0.00D+00
 Coeff-Com:  0.137D-02-0.106D-01-0.399D-01-0.705D-01 0.189D+00 0.931D+00
 Coeff:      0.137D-02-0.106D-01-0.399D-01-0.705D-01 0.189D+00 0.931D+00
 Gap=     0.512 Goal=   None    Shift=    0.000
 RMSDP=7.57D-06 MaxDP=5.68D-04 DE=-5.30D-05 OVMax= 1.05D-03

 Cycle   7  Pass 1  IDiag  1:
 E= -282.966927801587     Delta-E=       -0.000007279582 Rises=F Damp=F
 DIIS: error= 3.77D-05 at cycle   7 NSaved=   7.
 NSaved= 7 IEnMin= 7 EnMin= -282.966927801587     IErMin= 7 ErrMin= 3.77D-05
 ErrMax= 3.77D-05  0.00D+00 EMaxC= 1.00D-01 BMatC= 4.96D-07 BMatP= 3.93D-06
 IDIUse=1 WtCom= 1.00D+00 WtEn= 0.00D+00
 Coeff-Com: -0.199D-03 0.272D-02 0.108D-01-0.153D-01-0.121D+00 0.878D-02
 Coeff-Com:  0.111D+01
 Coeff:     -0.199D-03 0.272D-02 0.108D-01-0.153D-01-0.121D+00 0.878D-02
 Coeff:      0.111D+01
 Gap=     0.512 Goal=   None    Shift=    0.000
 RMSDP=2.79D-06 MaxDP=1.84D-04 DE=-7.28D-06 OVMax= 7.09D-04

 Cycle   8  Pass 1  IDiag  1:
 E= -282.966929114303     Delta-E=       -0.000001312717 Rises=F Damp=F
 DIIS: error= 1.55D-05 at cycle   8 NSaved=   8.
 NSaved= 8 IEnMin= 8 EnMin= -282.966929114303     IErMin= 8 ErrMin= 1.55D-05
 ErrMax= 1.55D-05  0.00D+00 EMaxC= 1.00D-01 BMatC= 6.92D-08 BMatP= 4.96D-07
 IDIUse=1 WtCom= 1.00D+00 WtEn= 0.00D+00
 Coeff-Com: -0.163D-03 0.115D-02 0.450D-02 0.622D-02-0.491D-02-0.118D+00
 Coeff-Com: -0.140D+00 0.125D+01
 Coeff:     -0.163D-03 0.115D-02 0.450D-02 0.622D-02-0.491D-02-0.118D+00
 Coeff:     -0.140D+00 0.125D+01
 Gap=     0.513 Goal=   None    Shift=    0.000
 RMSDP=1.13D-06 MaxDP=8.10D-05 DE=-1.31D-06 OVMax= 3.01D-04

 Cycle   9  Pass 1  IDiag  1:
 E= -282.966929314062     Delta-E=       -0.000000199759 Rises=F Damp=F
 DIIS: error= 4.46D-06 at cycle   9 NSaved=   9.
 NSaved= 9 IEnMin= 9 EnMin= -282.966929314062     IErMin= 9 ErrMin= 4.46D-06
 ErrMax= 4.46D-06  0.00D+00 EMaxC= 1.00D-01 BMatC= 8.78D-09 BMatP= 6.92D-08
 IDIUse=1 WtCom= 1.00D+00 WtEn= 0.00D+00
 Coeff-Com: -0.203D-05-0.146D-03-0.559D-03 0.201D-02 0.159D-01-0.194D-01
 Coeff-Com: -0.156D+00 0.186D+00 0.973D+00
 Coeff:     -0.203D-05-0.146D-03-0.559D-03 0.201D-02 0.159D-01-0.194D-01
 Coeff:     -0.156D+00 0.186D+00 0.973D+00
 Gap=     0.512 Goal=   None    Shift=    0.000
 RMSDP=3.31D-07 MaxDP=2.27D-05 DE=-2.00D-07 OVMax= 8.49D-05

 Cycle  10  Pass 1  IDiag  1:
 E= -282.966929332937     Delta-E=       -0.000000018875 Rises=F Damp=F
 DIIS: error= 1.74D-06 at cycle  10 NSaved=  10.
 NSaved=10 IEnMin=10 EnMin= -282.966929332937     IErMin=10 ErrMin= 1.74D-06
 ErrMax= 1.74D-06  0.00D+00 EMaxC= 1.00D-01 BMatC= 1.01D-09 BMatP= 8.78D-09
 IDIUse=1 WtCom= 1.00D+00 WtEn= 0.00D+00
 Coeff-Com:  0.244D-04-0.199D-03-0.730D-03-0.117D-02 0.265D-02 0.160D-01
 Coeff-Com:  0.103D-01-0.178D+00 0.782D-01 0.107D+01
 Coeff:      0.244D-04-0.199D-03-0.730D-03-0.117D-02 0.265D-02 0.160D-01
 Coeff:      0.103D-01-0.178D+00 0.782D-01 0.107D+01
 Gap=     0.512 Goal=   None    Shift=    0.000
 RMSDP=1.17D-07 MaxDP=7.42D-06 DE=-1.89D-08 OVMax= 2.70D-05

 Cycle  11  Pass 1  IDiag  1:
 E= -282.966929335173     Delta-E=       -0.000000002236 Rises=F Damp=F
 DIIS: error= 3.80D-07 at cycle  11 NSaved=  11.
 NSaved=11 IEnMin=11 EnMin= -282.966929335173     IErMin=11 ErrMin= 3.80D-07
 ErrMax= 3.80D-07  0.00D+00 EMaxC= 1.00D-01 BMatC= 6.26D-11 BMatP= 1.01D-09
 IDIUse=1 WtCom= 1.00D+00 WtEn= 0.00D+00
 Coeff-Com: -0.518D-06 0.139D-04 0.796D-04-0.127D-03-0.972D-03 0.935D-05
 Coeff-Com:  0.999D-02 0.184D-02-0.854D-01-0.911D-01 0.117D+01
 Coeff:     -0.518D-06 0.139D-04 0.796D-04-0.127D-03-0.972D-03 0.935D-05
 Coeff:      0.999D-02 0.184D-02-0.854D-01-0.911D-01 0.117D+01
 Gap=     0.512 Goal=   None    Shift=    0.000
 RMSDP=3.68D-08 MaxDP=2.72D-06 DE=-2.24D-09 OVMax= 4.90D-06

 Cycle  12  Pass 1  IDiag  1:
 E= -282.966929335302     Delta-E=       -0.000000000130 Rises=F Damp=F
 DIIS: error= 9.91D-08 at cycle  12 NSaved=  12.
 NSaved=12 IEnMin=12 EnMin= -282.966929335302     IErMin=12 ErrMin= 9.91D-08
 ErrMax= 9.91D-08  0.00D+00 EMaxC= 1.00D-01 BMatC= 3.23D-12 BMatP= 6.26D-11
 IDIUse=1 WtCom= 1.00D+00 WtEn= 0.00D+00
 Coeff-Com: -0.145D-05 0.114D-04 0.428D-04 0.697D-04-0.102D-03-0.105D-02
 Coeff-Com: -0.155D-02 0.134D-01-0.409D-02-0.665D-01-0.327D-01 0.109D+01
 Coeff:     -0.145D-05 0.114D-04 0.428D-04 0.697D-04-0.102D-03-0.105D-02
 Coeff:     -0.155D-02 0.134D-01-0.409D-02-0.665D-01-0.327D-01 0.109D+01
 Gap=     0.512 Goal=   None    Shift=    0.000
 RMSDP=8.74D-09 MaxDP=6.19D-07 DE=-1.30D-10 OVMax= 9.59D-07

 SCF Done:  E(RHF) =  -282.966929335     A.U. after   12 cycles
            NFock= 12  Conv=0.87D-08     -V/T= 2.0010
 KE= 2.826808026698D+02 PE=-1.027614519722D+03 EE= 2.814124629877D+02
 Leave Link  502 at Fri Jan 15 13:55:04 2021, MaxMem= 13421772800 cpu:             605.9 elap:             109.7
 (Enter /data2/software/Gaussian/g16_c01-gpu/g16/l801.exe)
 ExpMin= 8.99D-02 ExpMax= 6.14D+04 ExpMxC= 5.91D+02 IAcc=3 IRadAn=         5 AccDes= 0.00D+00
 HarFok:  IExCor=  205 AccDes= 0.00D+00 IRadAn=         5 IDoV=-2 UseB2=F ITyADJ=14
 ICtDFT= 12500011 ScaDFX=  1.000000  1.000000  1.000000  1.000000
 DSYEVD-2 returned Info=          83 IAlg= 4 N=    55 NDim=    55 NE2=   244021963 trying  DSYEV.
 Largest valence mixing into a core orbital is  1.86D-04
 Largest core mixing into a valence orbital is  2.95D-05
 Range of M.O.s used for correlation:     6   425
 NBasis=   425 NAE=    20 NBE=    20 NFC=     5 NFV=     0
 NROrb=    420 NOA=    15 NOB=    15 NVA=   405 NVB=   405

 **** Warning!!: The largest alpha MO coefficient is  0.22032676D+02

 Leave Link  801 at Fri Jan 15 13:55:05 2021, MaxMem= 13421772800 cpu:               6.1 elap:               0.4
 (Enter /data2/software/Gaussian/g16_c01-gpu/g16/l906.exe)
 FulOut=F Deriv=F AODrv=F NAtomX=    10
   MMem=         244  MDisk=          15 MDiskD=          15
  W3Min=     3189375 MinDsk=     4853450 NBas6D=         525
 NBas2D=      139755    NTT=      138075    LW2=     4508827
    MDV= 13420933776 MDiskM=       56799 NBas2p=      131870
 Fully direct method using O(OVN) memory.
 IMap=   1   2   3   4   5   6   7   8   9  10  11  12  13  14  15
 JobTyp=1 Pass  1:  I=   1 to  15 NPSUse= 16 ParTrn=T ParDer=T DoDerP=F.
 Spin components of T(2) and E(2):
     alpha-alpha T2 =       0.3627933250D-01 E2=     -0.1322094537D+00
     alpha-beta  T2 =       0.2036160968D+00 E2=     -0.8183643301D+00
     beta-beta   T2 =       0.3627933250D-01 E2=     -0.1322094537D+00
 The integrals were generated   1 times.
 ANorm=    0.1129679053D+01
 E2 =    -0.1082783237D+01 EUMP2 =    -0.28404971257279D+03
 Leave Link  906 at Fri Jan 15 13:57:23 2021, MaxMem= 13421772800 cpu:            2203.8 elap:             137.7
 (Enter /data2/software/Gaussian/g16_c01-gpu/g16/l601.exe)
 Copying SCF densities to generalized density rwf, IOpCl= 0 IROHF=0.

 **********************************************************************

            Population analysis using the SCF Density.

 **********************************************************************

 Orbital symmetries:
       Occupied  (A) (A) (A) (A) (A) (A) (A) (A) (A) (A) (A) (A)
                 (A) (A) (A) (A) (A) (A) (A) (A)
       Virtual   (A) (A) (A) (A) (A) (A) (A) (A) (A) (A) (A) (A)
                 (A) (A) (A) (A) (A) (A) (A) (A) (A) (A) (A) (A)
                 (A) (A) (A) (A) (A) (A) (A) (A) (A) (A) (A) (A)
                 (A) (A) (A) (A) (A) (A) (A) (A) (A) (A) (A) (A)
                 (A) (A) (A) (A) (A) (A) (A) (A) (A) (A) (A) (A)
                 (A) (A) (A) (A) (A) (A) (A) (A) (A) (A) (A) (A)
                 (A) (A) (A) (A) (A) (A) (A) (A) (A) (A) (A) (A)
                 (A) (A) (A) (A) (A) (A) (A) (A) (A) (A) (A) (A)
                 (A) (A) (A) (A) (A) (A) (A) (A) (A) (A) (A) (A)
                 (A) (A) (A) (A) (A) (A) (A) (A) (A) (A) (A) (A)
                 (A) (A) (A) (A) (A) (A) (A) (A) (A) (A) (A) (A)
                 (A) (A) (A) (A) (A) (A) (A) (A) (A) (A) (A) (A)
                 (A) (A) (A) (A) (A) (A) (A) (A) (A) (A) (A) (A)
                 (A) (A) (A) (A) (A) (A) (A) (A) (A) (A) (A) (A)
                 (A) (A) (A) (A) (A) (A) (A) (A) (A) (A) (A) (A)
                 (A) (A) (A) (A) (A) (A) (A) (A) (A) (A) (A) (A)
                 (A) (A) (A) (A) (A) (A) (A) (A) (A) (A) (A) (A)
                 (A) (A) (A) (A) (A) (A) (A) (A) (A) (A) (A) (A)
                 (A) (A) (A) (A) (A) (A) (A) (A) (A) (A) (A) (A)
                 (A) (A) (A) (A) (A) (A) (A) (A) (A) (A) (A) (A)
                 (A) (A) (A) (A) (A) (A) (A) (A) (A) (A) (A) (A)
                 (A) (A) (A) (A) (A) (A) (A) (A) (A) (A) (A) (A)
                 (A) (A) (A) (A) (A) (A) (A) (A) (A) (A) (A) (A)
                 (A) (A) (A) (A) (A) (A) (A) (A) (A) (A) (A) (A)
                 (A) (A) (A) (A) (A) (A) (A) (A) (A) (A) (A) (A)
                 (A) (A) (A) (A) (A) (A) (A) (A) (A) (A) (A) (A)
                 (A) (A) (A) (A) (A) (A) (A) (A) (A) (A) (A) (A)
                 (A) (A) (A) (A) (A) (A) (A) (A) (A) (A) (A) (A)
                 (A) (A) (A) (A) (A) (A) (A) (A) (A) (A) (A) (A)
                 (A) (A) (A) (A) (A) (A) (A) (A) (A) (A) (A) (A)
                 (A) (A) (A) (A) (A) (A) (A) (A) (A) (A) (A) (A)
                 (A) (A) (A) (A) (A) (A) (A) (A) (A) (A) (A) (A)
                 (A) (A) (A) (A) (A) (A) (A) (A) (A) (A) (A) (A)
                 (A) (A) (A) (A) (A) (A) (A) (A) (A)
 The electronic state is 1-A.
 Alpha  occ. eigenvalues --  -20.61627 -20.55261 -15.54525 -11.38884 -11.27575
 Alpha  occ. eigenvalues --   -1.47417  -1.37062  -1.19356  -0.98215  -0.81505
 Alpha  occ. eigenvalues --   -0.72261  -0.71104  -0.67157  -0.63303  -0.60322
 Alpha  occ. eigenvalues --   -0.57724  -0.56474  -0.49145  -0.46190  -0.40332
 Alpha virt. eigenvalues --    0.10918   0.12649   0.15724   0.16027   0.18619
 Alpha virt. eigenvalues --    0.19733   0.25157   0.26825   0.29604   0.33235
 Alpha virt. eigenvalues --    0.33858   0.36753   0.40339   0.41232   0.44597
 Alpha virt. eigenvalues --    0.45267   0.46547   0.48503   0.50672   0.51128
 Alpha virt. eigenvalues --    0.52075   0.54037   0.55701   0.56383   0.57735
 Alpha virt. eigenvalues --    0.58121   0.59288   0.61763   0.63628   0.65061
 Alpha virt. eigenvalues --    0.70537   0.71964   0.73556   0.75577   0.79389
 Alpha virt. eigenvalues --    0.81272   0.83497   0.84635   0.89261   0.90311
 Alpha virt. eigenvalues --    0.93027   0.94293   0.96926   1.00738   1.01361
 Alpha virt. eigenvalues --    1.03033   1.04189   1.07776   1.08310   1.10636
 Alpha virt. eigenvalues --    1.13576   1.14158   1.16258   1.16396   1.18685
 Alpha virt. eigenvalues --    1.22960   1.24289   1.24822   1.28294   1.33398
 Alpha virt. eigenvalues --    1.35287   1.37341   1.39682   1.43341   1.46108
 Alpha virt. eigenvalues --    1.47862   1.52178   1.54013   1.55756   1.59811
 Alpha virt. eigenvalues --    1.62278   1.63656   1.68096   1.69839   1.71944
 Alpha virt. eigenvalues --    1.73727   1.79294   1.81251   1.81860   1.83655
 Alpha virt. eigenvalues --    1.89156   1.93089   1.95897   1.99531   2.02225
 Alpha virt. eigenvalues --    2.02790   2.06330   2.07177   2.10174   2.12839
 Alpha virt. eigenvalues --    2.15356   2.18305   2.21912   2.25021   2.27265
 Alpha virt. eigenvalues --    2.28058   2.29867   2.32189   2.33309   2.36078
 Alpha virt. eigenvalues --    2.37358   2.42870   2.43514   2.45638   2.46683
 Alpha virt. eigenvalues --    2.48199   2.49798   2.50886   2.53347   2.56672
 Alpha virt. eigenvalues --    2.58260   2.58505   2.60700   2.62160   2.63655
 Alpha virt. eigenvalues --    2.69027   2.69489   2.71314   2.72933   2.74821
 Alpha virt. eigenvalues --    2.77086   2.78471   2.83927   2.86157   2.87728
 Alpha virt. eigenvalues --    2.89699   2.90298   2.93274   2.97911   2.98969
 Alpha virt. eigenvalues --    3.02570   3.04227   3.06275   3.09661   3.13270
 Alpha virt. eigenvalues --    3.14795   3.18330   3.22106   3.23243   3.27047
 Alpha virt. eigenvalues --    3.28424   3.31849   3.33180   3.40358   3.44469
 Alpha virt. eigenvalues --    3.45532   3.48112   3.50475   3.55034   3.56328
 Alpha virt. eigenvalues --    3.59928   3.63152   3.66265   3.66413   3.68510
 Alpha virt. eigenvalues --    3.70292   3.71960   3.76679   3.80481   3.87620
 Alpha virt. eigenvalues --    3.89024   3.93439   3.93734   3.98386   4.02387
 Alpha virt. eigenvalues --    4.07749   4.12873   4.13502   4.14751   4.16837
 Alpha virt. eigenvalues --    4.17725   4.19372   4.23351   4.26053   4.29418
 Alpha virt. eigenvalues --    4.30879   4.37190   4.40780   4.44564   4.46924
 Alpha virt. eigenvalues --    4.48262   4.49929   4.58402   4.59524   4.64126
 Alpha virt. eigenvalues --    4.65277   4.69583   4.71287   4.73084   4.77107
 Alpha virt. eigenvalues --    4.82526   4.90505   4.92933   5.00380   5.05797
 Alpha virt. eigenvalues --    5.10473   5.16176   5.27797   5.37679   5.44436
 Alpha virt. eigenvalues --    5.51380   5.61037   5.67335   5.77623   5.82851
 Alpha virt. eigenvalues --    5.83856   5.88236   5.90420   5.93839   5.95042
 Alpha virt. eigenvalues --    5.97377   6.05654   6.06384   6.09393   6.12625
 Alpha virt. eigenvalues --    6.13082   6.16707   6.17927   6.21764   6.24914
 Alpha virt. eigenvalues --    6.29576   6.33061   6.37013   6.39785   6.42514
 Alpha virt. eigenvalues --    6.43444   6.45707   6.46534   6.50063   6.54050
 Alpha virt. eigenvalues --    6.55569   6.59645   6.61135   6.62036   6.64730
 Alpha virt. eigenvalues --    6.73038   6.75307   6.79575   6.81095   6.85053
 Alpha virt. eigenvalues --    6.92002   6.95413   6.97963   7.01372   7.03282
 Alpha virt. eigenvalues --    7.09359   7.12080   7.15910   7.19424   7.21343
 Alpha virt. eigenvalues --    7.24868   7.29382   7.33224   7.34071   7.38418
 Alpha virt. eigenvalues --    7.39857   7.42133   7.44800   7.49337   7.54213
 Alpha virt. eigenvalues --    7.55721   7.57316   7.58676   7.61636   7.68079
 Alpha virt. eigenvalues --    7.71199   7.73829   7.75955   7.82315   7.88449
 Alpha virt. eigenvalues --    7.90115   7.95079   7.97129   7.98353   8.00061
 Alpha virt. eigenvalues --    8.03081   8.05968   8.07594   8.12521   8.16436
 Alpha virt. eigenvalues --    8.18834   8.22585   8.23023   8.24233   8.24916
 Alpha virt. eigenvalues --    8.28076   8.30703   8.31765   8.37149   8.39506
 Alpha virt. eigenvalues --    8.43533   8.46584   8.49537   8.52849   8.56335
 Alpha virt. eigenvalues --    8.57446   8.63081   8.64199   8.66850   8.70871
 Alpha virt. eigenvalues --    8.74353   8.77862   8.82217   8.84467   8.86446
 Alpha virt. eigenvalues --    8.87715   8.92384   8.93776   8.99539   9.02313
 Alpha virt. eigenvalues --    9.07106   9.09498   9.12402   9.14926   9.17115
 Alpha virt. eigenvalues --    9.22561   9.24495   9.31226   9.34115   9.35390
 Alpha virt. eigenvalues --    9.37575   9.39139   9.42625   9.54810   9.59471
 Alpha virt. eigenvalues --    9.61624   9.65087   9.72068   9.74315   9.78454
 Alpha virt. eigenvalues --    9.82364   9.91574   9.94951  10.10273  10.20041
 Alpha virt. eigenvalues --   10.23933  10.26912  10.28540  10.34014  10.36563
 Alpha virt. eigenvalues --   10.38483  10.43319  10.44489  10.45698  10.53063
 Alpha virt. eigenvalues --   10.55371  10.58631  10.69643  10.73619  10.76992
 Alpha virt. eigenvalues --   10.80056  10.85126  10.88012  10.92861  10.98604
 Alpha virt. eigenvalues --   11.01218  11.05646  11.15441  11.27971  11.28676
 Alpha virt. eigenvalues --   11.45525  11.49987  11.59006  11.59561  11.62706
 Alpha virt. eigenvalues --   11.69919  11.86726  11.90588  11.95677  11.99782
 Alpha virt. eigenvalues --   12.06888  12.10979  12.12485  12.20849  12.27212
 Alpha virt. eigenvalues --   12.28589  12.33714  12.37984  12.43143  12.46529
 Alpha virt. eigenvalues --   12.61051  12.72702  12.77592  12.77896  12.84486
 Alpha virt. eigenvalues --   12.84932  12.93703  13.04295  13.20260  13.43748
 Alpha virt. eigenvalues --   13.65106  13.91598  14.08119  14.29629  14.38082
 Alpha virt. eigenvalues --   14.43174  14.56903  14.68795  14.75876  16.70968
 Alpha virt. eigenvalues --   24.89971  26.68421  34.77454  43.05420  44.11427
          Condensed to atoms (all electrons):
               1          2          3          4          5          6
     1  C    4.034361   0.435439   0.697562  -0.048039   0.391584  -0.048045
     2  O    0.435439   7.809695  -0.081267   0.330802  -0.084363   0.002563
     3  O    0.697562  -0.081267   7.930780   0.007616  -0.081920  -0.012615
     4  H   -0.048039   0.330802   0.007616   0.423311   0.014314  -0.000481
     5  C    0.391584  -0.084363  -0.081920   0.014314   4.693499   0.364678
     6  N   -0.048045   0.002563  -0.012615  -0.000481   0.364678   6.425355
     7  H   -0.023455   0.000759  -0.000570  -0.000931   0.421045  -0.106283
     8  H   -0.016463   0.002389   0.002620  -0.000381   0.368650  -0.027407
     9  H    0.005824  -0.000205  -0.000320   0.000058  -0.037655   0.412635
    10  H   -0.015553   0.001028   0.016370  -0.000205  -0.039652   0.404804
               7          8          9         10
     1  C   -0.023455  -0.016463   0.005824  -0.015553
     2  O    0.000759   0.002389  -0.000205   0.001028
     3  O   -0.000570   0.002620  -0.000320   0.016370
     4  H   -0.000931  -0.000381   0.000058  -0.000205
     5  C    0.421045   0.368650  -0.037655  -0.039652
     6  N   -0.106283  -0.027407   0.412635   0.404804
     7  H    0.740779  -0.076926  -0.006723   0.001697
     8  H   -0.076926   0.653716  -0.001322   0.006444
     9  H   -0.006723  -0.001322   0.522298  -0.037037
    10  H    0.001697   0.006444  -0.037037   0.484082
 Mulliken charges:
               1
     1  C    0.586786
     2  O   -0.416839
     3  O   -0.478256
     4  H    0.273935
     5  C   -0.010180
     6  N   -0.415203
     7  H    0.050608
     8  H    0.088680
     9  H    0.142448
    10  H    0.178022
 Sum of Mulliken charges =  -0.00000
 Mulliken charges with hydrogens summed into heavy atoms:
               1
     1  C    0.586786
     2  O   -0.142904
     3  O   -0.478256
     5  C    0.129108
     6  N   -0.094733
 Electronic spatial extent (au):  <R**2>=            414.2804
 Charge=             -0.0000 electrons
 Dipole moment (field-independent basis, Debye):
    X=              0.0760    Y=             -1.7773    Z=              1.3307  Tot=              2.2215
 Quadrupole moment (field-independent basis, Debye-Ang):
   XX=            -23.5044   YY=            -33.1727   ZZ=            -30.3591
   XY=              1.2016   XZ=             -3.3396   YZ=              0.0997
 Traceless Quadrupole moment (field-independent basis, Debye-Ang):
   XX=              5.5077   YY=             -4.1607   ZZ=             -1.3470
   XY=              1.2016   XZ=             -3.3396   YZ=              0.0997
 Octapole moment (field-independent basis, Debye-Ang**2):
  XXX=             14.4577  YYY=             -2.7777  ZZZ=              1.7561  XYY=             -6.3105
  XXY=              2.5309  XXZ=              6.8262  XZZ=              4.2541  YZZ=             -0.4903
  YYZ=             -0.0747  XYZ=             -0.7202
 Hexadecapole moment (field-independent basis, Debye-Ang**3):
 XXXX=           -241.1072 YYYY=           -141.5315 ZZZZ=            -36.7534 XXXY=              8.3977
 XXXZ=            -20.1186 YYYX=             -5.2401 YYYZ=              1.6888 ZZZX=             -4.1323
 ZZZY=              0.1050 XXYY=            -78.0566 XXZZ=            -66.7542 YYZZ=            -28.0915
 XXYZ=              0.3121 YYXZ=             -1.0668 ZZXY=              1.0068
 N-N= 1.805543247289D+02 E-N=-1.027614522461D+03  KE= 2.826808026698D+02
 Leave Link  601 at Fri Jan 15 13:57:23 2021, MaxMem= 13421772800 cpu:               3.6 elap:               0.3
 (Enter /data2/software/Gaussian/g16_c01-gpu/g16/l9999.exe)
 Unable to Open any file for archive entry.
 1\1\GINC-CU05\SP\RMP2-FC\CC-pVQZ\C2H5N1O2\SHUCHONG\15-Jan-2021\0\\#p M
 P2 cc-pVQZ\\start best geom PCCP paper\\0,1\C\O,1,1.34608\O,1,1.20274,
 2,123.21263\H,2,0.96513,1,106.9601,3,1.12063,0\C,1,1.50353,3,125.17128
 ,2,178.03326,0\N,5,1.44879,1,110.05161,3,18.04528,0\H,5,1.09682,1,105.
 6396,3,-106.18775,0\H,5,1.08963,1,108.30581,3,139.44601,0\H,6,1.00859,
 5,111.64684,1,-155.36007,0\H,6,1.01187,5,110.28053,1,-34.31555,0\\Vers
 ion=AM64L-G16RevC.01\State=1-A\HF=-282.9669293\MP2=-284.0497126\RMSD=8
 .744e-09\PG=C01 [X(C2H5N1O2)]\\@
 The archive entry for this job was punched.


 GROWING OLD ISN'T SO BAD -- WHEN YOU CONSIDER THE ALTERNATIVE.

                     -- MAURICE CHEVALIER
 Job cpu time:       0 days  0 hours 47 minutes 47.6 seconds.
 Elapsed time:       0 days  0 hours  4 minutes 11.5 seconds.
 File lengths (MBytes):  RWF=     72 Int=      0 D2E=      0 Chk=     13 Scr=      1
 Normal termination of Gaussian 16 at Fri Jan 15 13:57:23 2021.
