 Entering Gaussian System, Link 0=g16
 Input=tct_Best_geom_MP2_cc-pVQZ.gjf
 Output=tct_Best_geom_MP2_cc-pVQZ.log
 Initial command:
 /data2/software/Gaussian/g16_c01-gpu/g16/l1.exe "/home/shuchong/scratch/Gau-6614.inp" -scrdir="/home/shuchong/scratch/"
 Entering Link 1 = /data2/software/Gaussian/g16_c01-gpu/g16/l1.exe PID=      6615.
  
 Copyright (c) 1988-2019, Gaussian, Inc.  All Rights Reserved.
  
 This is part of the Gaussian(R) 16 program.  It is based on
 the Gaussian(R) 09 system (copyright 2009, Gaussian, Inc.),
 the Gaussian(R) 03 system (copyright 2003, Gaussian, Inc.),
 the Gaussian(R) 98 system (copyright 1998, Gaussian, Inc.),
 the Gaussian(R) 94 system (copyright 1995, Gaussian, Inc.),
 the Gaussian 92(TM) system (copyright 1992, Gaussian, Inc.),
 the Gaussian 90(TM) system (copyright 1990, Gaussian, Inc.),
 the Gaussian 88(TM) system (copyright 1988, Gaussian, Inc.),
 the Gaussian 86(TM) system (copyright 1986, Carnegie Mellon
 University), and the Gaussian 82(TM) system (copyright 1983,
 Carnegie Mellon University). Gaussian is a federally registered
 trademark of Gaussian, Inc.
  
 This software contains proprietary and confidential information,
 including trade secrets, belonging to Gaussian, Inc.
  
 This software is provided under written license and may be
 used, copied, transmitted, or stored only in accord with that
 written license.
  
 The following legend is applicable only to US Government
 contracts under FAR:
  
                    RESTRICTED RIGHTS LEGEND
  
 Use, reproduction and disclosure by the US Government is
 subject to restrictions as set forth in subparagraphs (a)
 and (c) of the Commercial Computer Software - Restricted
 Rights clause in FAR 52.227-19.
  
 Gaussian, Inc.
 340 Quinnipiac St., Bldg. 40, Wallingford CT 06492
  
  
 ---------------------------------------------------------------
 Warning -- This program may not be used in any manner that
 competes with the business of Gaussian, Inc. or will provide
 assistance to any competitor of Gaussian, Inc.  The licensee
 of this program is prohibited from giving any competitor of
 Gaussian, Inc. access to this program.  By using this program,
 the user acknowledges that Gaussian, Inc. is engaged in the
 business of creating and licensing software in the field of
 computational chemistry and represents and warrants to the
 licensee that it is not a competitor of Gaussian, Inc. and that
 it will not use this program in any manner prohibited above.
 ---------------------------------------------------------------
  

 Cite this work as:
 Gaussian 16, Revision C.01,
 M. J. Frisch, G. W. Trucks, H. B. Schlegel, G. E. Scuseria, 
 M. A. Robb, J. R. Cheeseman, G. Scalmani, V. Barone, 
 G. A. Petersson, H. Nakatsuji, X. Li, M. Caricato, A. V. Marenich, 
 J. Bloino, B. G. Janesko, R. Gomperts, B. Mennucci, H. P. Hratchian, 
 J. V. Ortiz, A. F. Izmaylov, J. L. Sonnenberg, D. Williams-Young, 
 F. Ding, F. Lipparini, F. Egidi, J. Goings, B. Peng, A. Petrone, 
 T. Henderson, D. Ranasinghe, V. G. Zakrzewski, J. Gao, N. Rega, 
 G. Zheng, W. Liang, M. Hada, M. Ehara, K. Toyota, R. Fukuda, 
 J. Hasegawa, M. Ishida, T. Nakajima, Y. Honda, O. Kitao, H. Nakai, 
 T. Vreven, K. Throssell, J. A. Montgomery, Jr., J. E. Peralta, 
 F. Ogliaro, M. J. Bearpark, J. J. Heyd, E. N. Brothers, K. N. Kudin, 
 V. N. Staroverov, T. A. Keith, R. Kobayashi, J. Normand, 
 K. Raghavachari, A. P. Rendell, J. C. Burant, S. S. Iyengar, 
 J. Tomasi, M. Cossi, J. M. Millam, M. Klene, C. Adamo, R. Cammi, 
 J. W. Ochterski, R. L. Martin, K. Morokuma, O. Farkas, 
 J. B. Foresman, and D. J. Fox, Gaussian, Inc., Wallingford CT, 2019.
 
 ******************************************
 Gaussian 16:  AM64L-G16RevC.01  3-Jul-2019
                15-Jan-2021 
 ******************************************
 %chk=tct_Best_geom_MP2_cc-pVQZ.chk
 %nprocshared=16
 Will use up to   16 processors via shared memory.
 %mem=100GB
 --------------
 #p MP2 cc-pVQZ
 --------------
 1/38=1,172=1/1;
 2/12=2,17=6,18=5,40=1/2;
 3/5=16,6=2,11=9,25=1,30=1/1,2,3;
 4//1;
 5/5=2,38=5/2;
 8/10=1/1;
 9/16=-3/6;
 6/7=2,8=2,9=2,10=2/1;
 99/5=1,9=1/99;
 Leave Link    1 at Fri Jan 15 14:02:59 2021, MaxMem= 13421772800 cpu:               2.5 elap:               0.2
 (Enter /data2/software/Gaussian/g16_c01-gpu/g16/l101.exe)
 --------------------------
 start best geom PCCP paper
 --------------------------
 Symbolic Z-matrix:
 Charge =  0 Multiplicity = 1
 C
 O                    1    B1
 O                    1    B2       2    A1
 H                    2    B3       1    A2       3    D1       0
 C                    1    B4       3    A3       2    D2       0
 N                    5    B5       1    A4       3    D3       0
 H                    5    B6       1    A5       3    D4       0
 H                    5    B7       1    A6       3    D5       0
 H                    6    B8       5    A7       1    D6       0
 H                    6    B9       5    A8       1    D7       0
       Variables:
  B1                    1.34824                  
  B2                    1.20339                  
  B3                    0.96562                  
  B4                    1.51736                  
  B5                    1.44458                  
  B6                    1.0899                   
  B7                    1.0899                   
  B8                    1.00975                  
  B9                    1.00975                  
  A1                  122.72896                  
  A2                  106.37597                  
  A3                  123.80161                  
  A4                  118.62999                  
  A5                  105.95621                  
  A6                  105.95621                  
  A7                  111.34671                  
  A8                  111.34671                  
  D1                    0.                       
  D2                  180.                       
  D3                  180.                       
  D4                   56.19793                  
  D5                  -56.19793                  
  D6                   59.71795                  
  D7                  -59.71795                  
 
 ITRead=  0  0  0  0  0  0  0  0  0  0
 MicOpt= -1 -1 -1 -1 -1 -1 -1 -1 -1 -1
 NAtoms=     10 NQM=       10 NQMF=       0 NMMI=      0 NMMIF=      0
                NMic=       0 NMicF=      0.
                    Isotopes and Nuclear Properties:
 (Nuclear quadrupole moments (NQMom) in fm**2, nuclear magnetic moments (NMagM)
  in nuclear magnetons)

  Atom         1           2           3           4           5           6           7           8           9          10
 IAtWgt=          12          16          16           1          12          14           1           1           1           1
 AtmWgt=  12.0000000  15.9949146  15.9949146   1.0078250  12.0000000  14.0030740   1.0078250   1.0078250   1.0078250   1.0078250
 NucSpn=           0           0           0           1           0           2           1           1           1           1
 AtZEff=  -0.0000000  -0.0000000  -0.0000000  -0.0000000  -0.0000000  -0.0000000  -0.0000000  -0.0000000  -0.0000000  -0.0000000
 NQMom=    0.0000000   0.0000000   0.0000000   0.0000000   0.0000000   2.0440000   0.0000000   0.0000000   0.0000000   0.0000000
 NMagM=    0.0000000   0.0000000   0.0000000   2.7928460   0.0000000   0.4037610   2.7928460   2.7928460   2.7928460   2.7928460
 AtZNuc=   6.0000000   8.0000000   8.0000000   1.0000000   6.0000000   7.0000000   1.0000000   1.0000000   1.0000000   1.0000000
 Leave Link  101 at Fri Jan 15 14:02:59 2021, MaxMem= 13421772800 cpu:               1.4 elap:               0.2
 (Enter /data2/software/Gaussian/g16_c01-gpu/g16/l202.exe)
                          Input orientation:                          
 ---------------------------------------------------------------------
 Center     Atomic      Atomic             Coordinates (Angstroms)
 Number     Number       Type             X           Y           Z
 ---------------------------------------------------------------------
      1          6           0        0.000000    0.000000    0.000000
      2          8           0        0.000000    0.000000    1.348240
      3          8           0        1.012337    0.000000   -0.650632
      4          1           0        0.926448    0.000000    1.620486
      5          6           0       -1.391833    0.000000   -0.604303
      6          7           0       -2.531719    0.000000    0.283092
      7          1           0       -1.434486   -0.870775   -1.258379
      8          1           0       -1.434486    0.870775   -1.258379
      9          1           0       -2.530429    0.812151    0.883095
     10          1           0       -2.530429   -0.812151    0.883095
 ---------------------------------------------------------------------
                    Distance matrix (angstroms):
                    1          2          3          4          5
     1  C    0.000000
     2  O    1.348240   0.000000
     3  O    1.203390   2.240606   0.000000
     4  H    1.866623   0.965621   2.272741   0.000000
     5  C    1.517360   2.397837   2.404616   3.213116   0.000000
     6  N    2.547497   2.746660   3.664993   3.707768   1.444580
     7  H    2.097502   3.100074   2.667311   3.823627   1.089900
     8  H    2.097502   3.100074   2.667311   3.823627   1.089900
     9  H    2.800449   2.697966   3.945009   3.626752   2.041653
    10  H    2.800449   2.697966   3.945009   3.626752   2.041653
                    6          7          8          9         10
     6  N    0.000000
     7  H    2.082859   0.000000
     8  H    2.082859   1.741549   0.000000
     9  H    1.009750   2.935854   2.406333   0.000000
    10  H    1.009750   2.406333   2.935854   1.624303   0.000000
 Stoichiometry    C2H5NO2
 Framework group  CS[SG(C2HNO2),X(H4)]
 Deg. of freedom    15
 Full point group                 CS      NOp   2
 Largest Abelian subgroup         CS      NOp   2
 Largest concise Abelian subgroup CS      NOp   2
                         Standard orientation:                         
 ---------------------------------------------------------------------
 Center     Atomic      Atomic             Coordinates (Angstroms)
 Number     Number       Type             X           Y           Z
 ---------------------------------------------------------------------
      1          6           0       -0.000000    0.635900    0.000000
      2          8           0       -1.323949    0.381124    0.000000
      3          8           0        0.447609    1.752947    0.000000
      4          1           0       -1.766360    1.239435    0.000000
      5          6           0        0.856429   -0.616662   -0.000000
      6          7           0        0.200424   -1.903701   -0.000000
      7          1           0        1.506780   -0.534947    0.870775
      8          1           0        1.506780   -0.534947   -0.870775
      9          1           0       -0.389012   -2.015816   -0.812151
     10          1           0       -0.389012   -2.015816    0.812151
 ---------------------------------------------------------------------
 Rotational constants (GHZ):          10.0492564           4.0169293           2.9660702
 Leave Link  202 at Fri Jan 15 14:02:59 2021, MaxMem= 13421772800 cpu:               0.2 elap:               0.0
 (Enter /data2/software/Gaussian/g16_c01-gpu/g16/l301.exe)
 Standard basis: CC-pVQZ (5D, 7F)
 Ernie: Thresh=  0.10000D-02 Tol=  0.10000D-05 Strict=F.
 Ernie:  15 primitive shells out of 225 were deleted.
 There are   324 symmetry adapted cartesian basis functions of A'  symmetry.
 There are   201 symmetry adapted cartesian basis functions of A"  symmetry.
 There are   255 symmetry adapted basis functions of A'  symmetry.
 There are   170 symmetry adapted basis functions of A"  symmetry.
   425 basis functions,   630 primitive gaussians,   525 cartesian basis functions
    20 alpha electrons       20 beta electrons
       nuclear repulsion energy       180.0072559301 Hartrees.
 IExCor=    0 DFT=F Ex=HF Corr=None ExCW=0 ScaHFX=  1.000000
 ScaDFX=  1.000000  1.000000  1.000000  1.000000 ScalE2=  1.000000  1.000000
 IRadAn=      5 IRanWt=     -1 IRanGd=            0 ICorTp=0 IEmpDi=  4
 NAtoms=   10 NActive=   10 NUniq=    8 SFac= 1.56D+00 NAtFMM=   60 NAOKFM=F Big=F
 Integral buffers will be    131072 words long.
 Raffenetti 1 integral format.
 Two-electron integral symmetry is turned on.
 Leave Link  301 at Fri Jan 15 14:02:59 2021, MaxMem= 13421772800 cpu:               0.9 elap:               0.1
 (Enter /data2/software/Gaussian/g16_c01-gpu/g16/l302.exe)
 NPDir=0 NMtPBC=     1 NCelOv=     1 NCel=       1 NClECP=     1 NCelD=      1
         NCelK=      1 NCelE2=     1 NClLst=     1 CellRange=     0.0.
 One-electron integrals computed using PRISM.
 One-electron integral symmetry used in STVInt
 NBasis=   425 RedAO= T EigKep=  8.91D-05  NBF=   255   170
 NBsUse=   425 1.00D-06 EigRej= -1.00D+00 NBFU=   255   170
 Leave Link  302 at Fri Jan 15 14:03:00 2021, MaxMem= 13421772800 cpu:              11.8 elap:               0.8
 (Enter /data2/software/Gaussian/g16_c01-gpu/g16/l303.exe)
 DipDrv:  MaxL=1.
 Leave Link  303 at Fri Jan 15 14:03:00 2021, MaxMem= 13421772800 cpu:               0.8 elap:               0.1
 (Enter /data2/software/Gaussian/g16_c01-gpu/g16/l401.exe)
 ExpMin= 8.99D-02 ExpMax= 6.14D+04 ExpMxC= 5.91D+02 IAcc=3 IRadAn=         5 AccDes= 0.00D+00
 Harris functional with IExCor=  205 and IRadAn=       5 diagonalized for initial guess.
 HarFok:  IExCor=  205 AccDes= 0.00D+00 IRadAn=         5 IDoV= 1 UseB2=F ITyADJ=14
 ICtDFT=  3500011 ScaDFX=  1.000000  1.000000  1.000000  1.000000
 FoFCou: FMM=F IPFlag=           0 FMFlag=      100000 FMFlg1=           0
         NFxFlg=           0 DoJE=T BraDBF=F KetDBF=T FulRan=T
         wScrn=  0.000000 ICntrl=       500 IOpCl=  0 I1Cent=   200000004 NGrid=           0
         NMat0=    1 NMatS0=      1 NMatT0=    0 NMatD0=    1 NMtDS0=    0 NMtDT0=    0
 Petite list used in FoFCou.
 Harris En= -283.248765787744    
 JPrj=0 DoOrth=F DoCkMO=F.
 Initial guess orbital symmetries:
       Occupied  (A') (A') (A') (A') (A') (A') (A') (A') (A') (A')
                 (A") (A') (A') (A') (A") (A') (A") (A") (A') (A')
       Virtual   (A") (A') (A') (A') (A") (A') (A") (A') (A') (A')
                 (A') (A") (A") (A') (A') (A') (A") (A') (A") (A')
                 (A') (A') (A') (A") (A") (A') (A') (A') (A') (A")
                 (A") (A') (A") (A') (A') (A') (A') (A") (A") (A')
                 (A") (A') (A") (A") (A') (A') (A') (A") (A') (A")
                 (A') (A') (A") (A') (A") (A') (A') (A') (A") (A')
                 (A') (A") (A') (A') (A") (A') (A") (A') (A') (A")
                 (A') (A') (A') (A") (A') (A") (A') (A") (A') (A')
                 (A") (A') (A') (A") (A") (A') (A') (A') (A") (A")
                 (A') (A") (A') (A') (A") (A') (A") (A") (A') (A')
                 (A') (A") (A') (A") (A") (A") (A') (A") (A') (A")
                 (A") (A') (A') (A') (A') (A') (A") (A') (A") (A')
                 (A') (A') (A") (A") (A") (A') (A") (A') (A") (A')
                 (A") (A') (A') (A') (A') (A") (A') (A") (A') (A")
                 (A') (A') (A") (A') (A") (A') (A") (A') (A') (A')
                 (A') (A") (A') (A") (A') (A") (A') (A') (A') (A")
                 (A") (A') (A") (A') (A') (A') (A") (A') (A") (A")
                 (A') (A') (A") (A') (A") (A') (A') (A') (A") (A')
                 (A") (A') (A') (A") (A') (A') (A") (A") (A") (A')
                 (A') (A") (A') (A') (A") (A') (A') (A') (A") (A')
                 (A') (A') (A") (A") (A') (A') (A") (A') (A") (A')
                 (A") (A") (A') (A") (A') (A") (A') (A') (A") (A')
                 (A") (A') (A') (A") (A") (A') (A") (A") (A') (A")
                 (A') (A") (A') (A') (A') (A") (A") (A') (A') (A")
                 (A") (A') (A') (A") (A") (A') (A') (A") (A') (A")
                 (A') (A") (A') (A") (A') (A') (A') (A") (A") (A")
                 (A') (A') (A") (A') (A") (A') (A') (A") (A') (A')
                 (A") (A") (A') (A') (A') (A') (A") (A') (A') (A")
                 (A') (A") (A') (A") (A') (A") (A") (A") (A') (A")
                 (A') (A') (A') (A') (A") (A') (A') (A") (A') (A")
                 (A') (A") (A') (A") (A') (A') (A") (A") (A') (A")
                 (A') (A") (A') (A') (A') (A') (A") (A') (A') (A')
                 (A") (A") (A') (A') (A") (A") (A') (A") (A') (A")
                 (A') (A') (A") (A') (A') (A") (A') (A") (A") (A')
                 (A') (A") (A') (A") (A') (A") (A") (A') (A") (A')
                 (A") (A') (A") (A') (A") (A') (A') (A") (A') (A')
                 (A') (A') (A") (A") (A') (A') (A") (A') (A') (A')
                 (A") (A') (A") (A') (A") (A') (A") (A") (A") (A')
                 (A') (A") (A') (A') (A") (A') (A") (A') (A") (A')
                 (A') (A") (A') (A') (A') (A") (A') (A') (A") (A')
                 (A') (A') (A') (A') (A')
 The electronic state of the initial guess is 1-A'.
 Leave Link  401 at Fri Jan 15 14:03:03 2021, MaxMem= 13421772800 cpu:              33.5 elap:               2.2
 (Enter /data2/software/Gaussian/g16_c01-gpu/g16/l502.exe)
 Keep R1 ints in memory in symmetry-blocked form, NReq=6150019474.
 FoFCou: FMM=F IPFlag=           0 FMFlag=           0 FMFlg1=           0
         NFxFlg=           0 DoJE=F BraDBF=F KetDBF=F FulRan=T
         wScrn=  0.000000 ICntrl=       600 IOpCl=  0 I1Cent=           0 NGrid=           0
         NMat0=    1 NMatS0=  90525 NMatT0=    0 NMatD0=    1 NMtDS0=    0 NMtDT0=    0
 Petite list used in FoFCou.
 Closed shell SCF:
 Using DIIS extrapolation, IDIIS=  1040.
 NGot= 13421772800 LenX= 11368624985 LenY= 11368348835
 Requested convergence on RMS density matrix=1.00D-08 within 128 cycles.
 Requested convergence on MAX density matrix=1.00D-06.
 Requested convergence on             energy=1.00D-06.
 No special actions if energy rises.

 Cycle   1  Pass 1  IDiag  1:
 E= -282.722999091434    
 DIIS: error= 2.64D-02 at cycle   1 NSaved=   1.
 NSaved= 1 IEnMin= 1 EnMin= -282.722999091434     IErMin= 1 ErrMin= 2.64D-02
 ErrMax= 2.64D-02  0.00D+00 EMaxC= 1.00D-01 BMatC= 6.53D-01 BMatP= 6.53D-01
 IDIUse=3 WtCom= 7.36D-01 WtEn= 2.64D-01
 Coeff-Com:  0.100D+01
 Coeff-En:   0.100D+01
 Coeff:      0.100D+01
 Gap=     0.436 Goal=   None    Shift=    0.000
 GapD=    0.436 DampG=2.000 DampE=0.500 DampFc=1.0000 IDamp=-1.
 RMSDP=1.27D-03 MaxDP=9.83D-02              OVMax= 1.23D-01

 Cycle   2  Pass 1  IDiag  1:
 E= -282.911667599368     Delta-E=       -0.188668507934 Rises=F Damp=F
 DIIS: error= 1.26D-02 at cycle   2 NSaved=   2.
 NSaved= 2 IEnMin= 2 EnMin= -282.911667599368     IErMin= 2 ErrMin= 1.26D-02
 ErrMax= 1.26D-02  0.00D+00 EMaxC= 1.00D-01 BMatC= 8.17D-02 BMatP= 6.53D-01
 IDIUse=3 WtCom= 8.74D-01 WtEn= 1.26D-01
 Coeff-Com:  0.189D+00 0.811D+00
 Coeff-En:   0.000D+00 0.100D+01
 Coeff:      0.165D+00 0.835D+00
 Gap=     0.540 Goal=   None    Shift=    0.000
 RMSDP=7.50D-04 MaxDP=7.29D-02 DE=-1.89D-01 OVMax= 5.37D-02

 Cycle   3  Pass 1  IDiag  1:
 E= -282.958658771749     Delta-E=       -0.046991172380 Rises=F Damp=F
 DIIS: error= 7.74D-03 at cycle   3 NSaved=   3.
 NSaved= 3 IEnMin= 3 EnMin= -282.958658771749     IErMin= 3 ErrMin= 7.74D-03
 ErrMax= 7.74D-03  0.00D+00 EMaxC= 1.00D-01 BMatC= 1.16D-02 BMatP= 8.17D-02
 IDIUse=3 WtCom= 9.23D-01 WtEn= 7.74D-02
 Coeff-Com: -0.225D-01 0.246D+00 0.776D+00
 Coeff-En:   0.000D+00 0.000D+00 0.100D+01
 Coeff:     -0.207D-01 0.227D+00 0.794D+00
 Gap=     0.512 Goal=   None    Shift=    0.000
 RMSDP=1.12D-04 MaxDP=6.08D-03 DE=-4.70D-02 OVMax= 2.62D-02

 Cycle   4  Pass 1  IDiag  1:
 E= -282.965867808461     Delta-E=       -0.007209036713 Rises=F Damp=F
 DIIS: error= 1.37D-03 at cycle   4 NSaved=   4.
 NSaved= 4 IEnMin= 4 EnMin= -282.965867808461     IErMin= 4 ErrMin= 1.37D-03
 ErrMax= 1.37D-03  0.00D+00 EMaxC= 1.00D-01 BMatC= 4.27D-04 BMatP= 1.16D-02
 IDIUse=3 WtCom= 9.86D-01 WtEn= 1.37D-02
 Coeff-Com: -0.102D-01 0.520D-01 0.250D+00 0.709D+00
 Coeff-En:   0.000D+00 0.000D+00 0.000D+00 0.100D+01
 Coeff:     -0.101D-01 0.513D-01 0.246D+00 0.713D+00
 Gap=     0.509 Goal=   None    Shift=    0.000
 RMSDP=3.85D-05 MaxDP=3.21D-03 DE=-7.21D-03 OVMax= 4.64D-03

 Cycle   5  Pass 1  IDiag  1:
 E= -282.966218941303     Delta-E=       -0.000351132841 Rises=F Damp=F
 DIIS: error= 5.41D-04 at cycle   5 NSaved=   5.
 NSaved= 5 IEnMin= 5 EnMin= -282.966218941303     IErMin= 5 ErrMin= 5.41D-04
 ErrMax= 5.41D-04  0.00D+00 EMaxC= 1.00D-01 BMatC= 2.92D-05 BMatP= 4.27D-04
 IDIUse=3 WtCom= 9.95D-01 WtEn= 5.41D-03
 Coeff-Com:  0.174D-02-0.230D-01-0.734D-01 0.560D-01 0.104D+01
 Coeff-En:   0.000D+00 0.000D+00 0.000D+00 0.000D+00 0.100D+01
 Coeff:      0.173D-02-0.229D-01-0.730D-01 0.557D-01 0.104D+01
 Gap=     0.510 Goal=   None    Shift=    0.000
 RMSDP=2.43D-05 MaxDP=1.63D-03 DE=-3.51D-04 OVMax= 3.64D-03

 Cycle   6  Pass 1  IDiag  1:
 E= -282.966269529761     Delta-E=       -0.000050588458 Rises=F Damp=F
 DIIS: error= 1.17D-04 at cycle   6 NSaved=   6.
 NSaved= 6 IEnMin= 6 EnMin= -282.966269529761     IErMin= 6 ErrMin= 1.17D-04
 ErrMax= 1.17D-04  0.00D+00 EMaxC= 1.00D-01 BMatC= 4.33D-06 BMatP= 2.92D-05
 IDIUse=3 WtCom= 9.99D-01 WtEn= 1.17D-03
 Coeff-Com:  0.139D-02-0.110D-01-0.422D-01-0.716D-01 0.219D+00 0.904D+00
 Coeff-En:   0.000D+00 0.000D+00 0.000D+00 0.000D+00 0.000D+00 0.100D+01
 Coeff:      0.139D-02-0.110D-01-0.421D-01-0.715D-01 0.219D+00 0.904D+00
 Gap=     0.510 Goal=   None    Shift=    0.000
 RMSDP=1.09D-05 MaxDP=9.94D-04 DE=-5.06D-05 OVMax= 9.98D-04

 Cycle   7  Pass 1  IDiag  1:
 E= -282.966276992176     Delta-E=       -0.000007462415 Rises=F Damp=F
 DIIS: error= 4.74D-05 at cycle   7 NSaved=   7.
 NSaved= 7 IEnMin= 7 EnMin= -282.966276992176     IErMin= 7 ErrMin= 4.74D-05
 ErrMax= 4.74D-05  0.00D+00 EMaxC= 1.00D-01 BMatC= 4.99D-07 BMatP= 4.33D-06
 IDIUse=1 WtCom= 1.00D+00 WtEn= 0.00D+00
 Coeff-Com: -0.121D-03 0.216D-02 0.831D-02-0.164D-01-0.110D+00 0.237D-01
 Coeff-Com:  0.109D+01
 Coeff:     -0.121D-03 0.216D-02 0.831D-02-0.164D-01-0.110D+00 0.237D-01
 Coeff:      0.109D+01
 Gap=     0.510 Goal=   None    Shift=    0.000
 RMSDP=3.66D-06 MaxDP=2.70D-04 DE=-7.46D-06 OVMax= 6.85D-04

 Cycle   8  Pass 1  IDiag  1:
 E= -282.966278323400     Delta-E=       -0.000001331224 Rises=F Damp=F
 DIIS: error= 1.87D-05 at cycle   8 NSaved=   8.
 NSaved= 8 IEnMin= 8 EnMin= -282.966278323400     IErMin= 8 ErrMin= 1.87D-05
 ErrMax= 1.87D-05  0.00D+00 EMaxC= 1.00D-01 BMatC= 7.54D-08 BMatP= 4.99D-07
 IDIUse=1 WtCom= 1.00D+00 WtEn= 0.00D+00
 Coeff-Com: -0.190D-03 0.142D-02 0.567D-02 0.726D-02-0.167D-01-0.121D+00
 Coeff-Com: -0.114D+00 0.124D+01
 Coeff:     -0.190D-03 0.142D-02 0.567D-02 0.726D-02-0.167D-01-0.121D+00
 Coeff:     -0.114D+00 0.124D+01
 Gap=     0.510 Goal=   None    Shift=    0.000
 RMSDP=1.46D-06 MaxDP=9.04D-05 DE=-1.33D-06 OVMax= 3.09D-04

 Cycle   9  Pass 1  IDiag  1:
 E= -282.966278547120     Delta-E=       -0.000000223720 Rises=F Damp=F
 DIIS: error= 7.72D-06 at cycle   9 NSaved=   9.
 NSaved= 9 IEnMin= 9 EnMin= -282.966278547120     IErMin= 9 ErrMin= 7.72D-06
 ErrMax= 7.72D-06  0.00D+00 EMaxC= 1.00D-01 BMatC= 9.27D-09 BMatP= 7.54D-08
 IDIUse=1 WtCom= 1.00D+00 WtEn= 0.00D+00
 Coeff-Com: -0.109D-04-0.803D-04-0.273D-03 0.207D-02 0.141D-01-0.185D-01
 Coeff-Com: -0.151D+00 0.139D+00 0.101D+01
 Coeff:     -0.109D-04-0.803D-04-0.273D-03 0.207D-02 0.141D-01-0.185D-01
 Coeff:     -0.151D+00 0.139D+00 0.101D+01
 Gap=     0.510 Goal=   None    Shift=    0.000
 RMSDP=4.17D-07 MaxDP=2.71D-05 DE=-2.24D-07 OVMax= 9.09D-05

 Cycle  10  Pass 1  IDiag  1:
 E= -282.966278569176     Delta-E=       -0.000000022056 Rises=F Damp=F
 DIIS: error= 2.87D-06 at cycle  10 NSaved=  10.
 NSaved=10 IEnMin=10 EnMin= -282.966278569176     IErMin=10 ErrMin= 2.87D-06
 ErrMax= 2.87D-06  0.00D+00 EMaxC= 1.00D-01 BMatC= 1.07D-09 BMatP= 9.27D-09
 IDIUse=1 WtCom= 1.00D+00 WtEn= 0.00D+00
 Coeff-Com:  0.245D-04-0.205D-03-0.783D-03-0.120D-02 0.413D-02 0.141D-01
 Coeff-Com:  0.680D-02-0.163D+00 0.787D-01 0.106D+01
 Coeff:      0.245D-04-0.205D-03-0.783D-03-0.120D-02 0.413D-02 0.141D-01
 Coeff:      0.680D-02-0.163D+00 0.787D-01 0.106D+01
 Gap=     0.510 Goal=   None    Shift=    0.000
 RMSDP=1.29D-07 MaxDP=7.10D-06 DE=-2.21D-08 OVMax= 2.61D-05

 Cycle  11  Pass 1  IDiag  1:
 E= -282.966278571492     Delta-E=       -0.000000002316 Rises=F Damp=F
 DIIS: error= 5.31D-07 at cycle  11 NSaved=  11.
 NSaved=11 IEnMin=11 EnMin= -282.966278571492     IErMin=11 ErrMin= 5.31D-07
 ErrMax= 5.31D-07  0.00D+00 EMaxC= 1.00D-01 BMatC= 7.15D-11 BMatP= 1.07D-09
 IDIUse=1 WtCom= 1.00D+00 WtEn= 0.00D+00
 Coeff-Com:  0.255D-06 0.854D-05 0.600D-04-0.139D-03-0.102D-02 0.212D-03
 Coeff-Com:  0.106D-01 0.313D-02-0.953D-01-0.830D-01 0.117D+01
 Coeff:      0.255D-06 0.854D-05 0.600D-04-0.139D-03-0.102D-02 0.212D-03
 Coeff:      0.106D-01 0.313D-02-0.953D-01-0.830D-01 0.117D+01
 Gap=     0.510 Goal=   None    Shift=    0.000
 RMSDP=4.57D-08 MaxDP=2.96D-06 DE=-2.32D-09 OVMax= 5.86D-06

 Cycle  12  Pass 1  IDiag  1:
 E= -282.966278571656     Delta-E=       -0.000000000164 Rises=F Damp=F
 DIIS: error= 1.94D-07 at cycle  12 NSaved=  12.
 NSaved=12 IEnMin=12 EnMin= -282.966278571656     IErMin=12 ErrMin= 1.94D-07
 ErrMax= 1.94D-07  0.00D+00 EMaxC= 1.00D-01 BMatC= 4.05D-12 BMatP= 7.15D-11
 IDIUse=1 WtCom= 1.00D+00 WtEn= 0.00D+00
 Coeff-Com: -0.155D-05 0.124D-04 0.496D-04 0.708D-04-0.181D-03-0.991D-03
 Coeff-Com: -0.154D-02 0.128D-01-0.177D-02-0.703D-01-0.461D-01 0.111D+01
 Coeff:     -0.155D-05 0.124D-04 0.496D-04 0.708D-04-0.181D-03-0.991D-03
 Coeff:     -0.154D-02 0.128D-01-0.177D-02-0.703D-01-0.461D-01 0.111D+01
 Gap=     0.510 Goal=   None    Shift=    0.000
 RMSDP=1.12D-08 MaxDP=7.37D-07 DE=-1.64D-10 OVMax= 1.18D-06

 Cycle  13  Pass 1  IDiag  1:
 E= -282.966278571660     Delta-E=       -0.000000000004 Rises=F Damp=F
 DIIS: error= 3.41D-08 at cycle  13 NSaved=  13.
 NSaved=13 IEnMin=13 EnMin= -282.966278571660     IErMin=13 ErrMin= 3.41D-08
 ErrMax= 3.41D-08  0.00D+00 EMaxC= 1.00D-01 BMatC= 3.83D-13 BMatP= 4.05D-12
 IDIUse=1 WtCom= 1.00D+00 WtEn= 0.00D+00
 Coeff-Com:  0.123D-07-0.108D-05-0.613D-05 0.827D-05 0.112D-03 0.178D-05
 Coeff-Com: -0.115D-02 0.111D-03 0.845D-02 0.546D-02-0.107D+00 0.465D-01
 Coeff-Com:  0.105D+01
 Coeff:      0.123D-07-0.108D-05-0.613D-05 0.827D-05 0.112D-03 0.178D-05
 Coeff:     -0.115D-02 0.111D-03 0.845D-02 0.546D-02-0.107D+00 0.465D-01
 Coeff:      0.105D+01
 Gap=     0.510 Goal=   None    Shift=    0.000
 RMSDP=2.90D-09 MaxDP=1.61D-07 DE=-3.98D-12 OVMax= 2.95D-07

 SCF Done:  E(RHF) =  -282.966278572     A.U. after   13 cycles
            NFock= 13  Conv=0.29D-08     -V/T= 2.0010
 KE= 2.826750738797D+02 PE=-1.026484240815D+03 EE= 2.808356324340D+02
 Leave Link  502 at Fri Jan 15 14:04:17 2021, MaxMem= 13421772800 cpu:             815.5 elap:              74.3
 (Enter /data2/software/Gaussian/g16_c01-gpu/g16/l801.exe)
 ExpMin= 8.99D-02 ExpMax= 6.14D+04 ExpMxC= 5.91D+02 IAcc=3 IRadAn=         5 AccDes= 0.00D+00
 HarFok:  IExCor=  205 AccDes= 0.00D+00 IRadAn=         5 IDoV=-2 UseB2=F ITyADJ=14
 ICtDFT= 12500011 ScaDFX=  1.000000  1.000000  1.000000  1.000000
 Largest valence mixing into a core orbital is  1.86D-04
 Largest core mixing into a valence orbital is  2.97D-05
 Range of M.O.s used for correlation:     6   425
 NBasis=   425 NAE=    20 NBE=    20 NFC=     5 NFV=     0
 NROrb=    420 NOA=    15 NOB=    15 NVA=   405 NVB=   405

 **** Warning!!: The largest alpha MO coefficient is  0.20065312D+02

 Leave Link  801 at Fri Jan 15 14:04:17 2021, MaxMem= 13421772800 cpu:               5.2 elap:               0.4
 (Enter /data2/software/Gaussian/g16_c01-gpu/g16/l906.exe)
 FulOut=F Deriv=F AODrv=F NAtomX=    10
   MMem=         244  MDisk=          15 MDiskD=          15
  W3Min=     3189375 MinDsk=     4853450 NBas6D=         525
 NBas2D=      139755    NTT=      138075    LW2=     4508827
    MDV= 13420713527 MDiskM=       56798 NBas2p=      103340
 Fully direct method using O(OVN) memory.
 IMap=   1   2   3   4   5   6   7   8   9  10  11  12  13  14  15
 JobTyp=1 Pass  1:  I=   1 to  15 NPSUse= 16 ParTrn=T ParDer=T DoDerP=F.
 Spin components of T(2) and E(2):
     alpha-alpha T2 =       0.3627699620D-01 E2=     -0.1321285152D+00
     alpha-beta  T2 =       0.2037930158D+00 E2=     -0.8184705022D+00
     beta-beta   T2 =       0.3627699620D-01 E2=     -0.1321285152D+00
 The integrals were generated   1 times.
 ANorm=    0.1129755287D+01
 E2 =    -0.1082727533D+01 EUMP2 =    -0.28404900610431D+03
 Leave Link  906 at Fri Jan 15 14:05:44 2021, MaxMem= 13421772800 cpu:            1381.2 elap:              86.3
 (Enter /data2/software/Gaussian/g16_c01-gpu/g16/l601.exe)
 Copying SCF densities to generalized density rwf, IOpCl= 0 IROHF=0.

 **********************************************************************

            Population analysis using the SCF Density.

 **********************************************************************

 Orbital symmetries:
       Occupied  (A') (A') (A') (A') (A') (A') (A') (A') (A') (A')
                 (A') (A") (A') (A") (A') (A') (A") (A') (A") (A')
       Virtual   (A') (A') (A') (A") (A") (A") (A') (A') (A') (A')
                 (A") (A") (A') (A') (A") (A') (A') (A") (A') (A')
                 (A') (A') (A") (A') (A') (A") (A') (A') (A") (A")
                 (A') (A') (A") (A') (A') (A') (A") (A") (A') (A')
                 (A") (A') (A") (A") (A') (A') (A') (A") (A') (A")
                 (A') (A") (A') (A') (A') (A") (A') (A') (A") (A')
                 (A') (A') (A") (A') (A") (A") (A') (A') (A') (A")
                 (A') (A') (A') (A") (A') (A") (A') (A") (A') (A')
                 (A") (A') (A') (A") (A") (A') (A') (A") (A') (A")
                 (A') (A") (A') (A') (A") (A') (A") (A") (A') (A')
                 (A") (A') (A') (A") (A") (A") (A') (A") (A") (A")
                 (A') (A') (A') (A') (A') (A') (A") (A") (A') (A')
                 (A') (A") (A") (A') (A") (A') (A') (A") (A") (A')
                 (A') (A") (A') (A') (A') (A') (A") (A") (A') (A")
                 (A') (A") (A') (A") (A') (A") (A') (A') (A") (A')
                 (A') (A') (A') (A") (A') (A") (A') (A') (A') (A")
                 (A") (A') (A") (A') (A') (A') (A") (A") (A') (A')
                 (A') (A") (A') (A") (A') (A") (A") (A') (A') (A')
                 (A") (A') (A') (A") (A") (A') (A') (A") (A") (A')
                 (A") (A') (A') (A') (A") (A') (A') (A') (A") (A')
                 (A') (A') (A") (A') (A") (A') (A") (A') (A") (A')
                 (A") (A") (A') (A") (A') (A") (A') (A') (A") (A")
                 (A') (A") (A') (A') (A") (A') (A") (A") (A") (A')
                 (A') (A") (A') (A') (A') (A") (A") (A') (A') (A")
                 (A") (A') (A') (A") (A') (A") (A") (A') (A') (A")
                 (A") (A') (A') (A") (A') (A") (A") (A') (A') (A")
                 (A') (A") (A') (A') (A') (A") (A') (A") (A') (A')
                 (A") (A') (A") (A') (A") (A') (A') (A') (A") (A")
                 (A') (A') (A") (A") (A') (A') (A") (A") (A') (A")
                 (A') (A') (A') (A') (A") (A') (A') (A") (A") (A')
                 (A') (A") (A') (A") (A') (A") (A') (A") (A') (A")
                 (A') (A") (A') (A') (A') (A') (A') (A') (A") (A")
                 (A") (A') (A') (A") (A') (A") (A") (A') (A') (A")
                 (A') (A") (A') (A') (A') (A') (A") (A') (A") (A")
                 (A') (A') (A") (A") (A') (A") (A') (A") (A') (A")
                 (A") (A') (A") (A') (A") (A") (A') (A') (A') (A')
                 (A") (A') (A") (A') (A') (A') (A') (A") (A') (A')
                 (A') (A") (A") (A') (A") (A") (A') (A') (A") (A")
                 (A') (A") (A') (A") (A') (A") (A') (A') (A") (A')
                 (A') (A") (A') (A') (A") (A') (A') (A") (A') (A')
                 (A') (A') (A') (A') (A')
 The electronic state is 1-A'.
 Alpha  occ. eigenvalues --  -20.61815 -20.54777 -15.55341 -11.38552 -11.27694
 Alpha  occ. eigenvalues --   -1.47311  -1.36678  -1.20085  -0.97472  -0.83296
 Alpha  occ. eigenvalues --   -0.71033  -0.70044  -0.69441  -0.63159  -0.59822
 Alpha  occ. eigenvalues --   -0.58270  -0.54744  -0.48641  -0.48291  -0.40429
 Alpha virt. eigenvalues --    0.10567   0.13653   0.14819   0.14913   0.16592
 Alpha virt. eigenvalues --    0.22414   0.24143   0.27460   0.31678   0.32377
 Alpha virt. eigenvalues --    0.33685   0.38661   0.39105   0.39398   0.42470
 Alpha virt. eigenvalues --    0.42988   0.45118   0.47575   0.48805   0.49219
 Alpha virt. eigenvalues --    0.51788   0.52608   0.56293   0.56840   0.58057
 Alpha virt. eigenvalues --    0.58364   0.59845   0.64626   0.64939   0.66686
 Alpha virt. eigenvalues --    0.70181   0.71211   0.71850   0.73794   0.79208
 Alpha virt. eigenvalues --    0.82907   0.84333   0.87091   0.91790   0.92265
 Alpha virt. eigenvalues --    0.93928   0.95111   0.96356   0.97683   0.99956
 Alpha virt. eigenvalues --    1.04029   1.05307   1.07632   1.08393   1.11154
 Alpha virt. eigenvalues --    1.12500   1.14110   1.14519   1.17128   1.18891
 Alpha virt. eigenvalues --    1.20463   1.21495   1.25730   1.30061   1.30881
 Alpha virt. eigenvalues --    1.33223   1.38937   1.39179   1.40777   1.48346
 Alpha virt. eigenvalues --    1.50348   1.50542   1.53357   1.60600   1.60851
 Alpha virt. eigenvalues --    1.63161   1.64858   1.67482   1.68324   1.72070
 Alpha virt. eigenvalues --    1.73929   1.74834   1.80403   1.86272   1.87885
 Alpha virt. eigenvalues --    1.90938   1.92363   1.96371   1.99653   2.02650
 Alpha virt. eigenvalues --    2.03180   2.05877   2.09173   2.09550   2.11144
 Alpha virt. eigenvalues --    2.15514   2.15575   2.18609   2.22077   2.22718
 Alpha virt. eigenvalues --    2.29137   2.30941   2.32167   2.34785   2.40610
 Alpha virt. eigenvalues --    2.41749   2.42295   2.42516   2.42642   2.44344
 Alpha virt. eigenvalues --    2.48520   2.48817   2.51240   2.53671   2.54822
 Alpha virt. eigenvalues --    2.55096   2.57226   2.61061   2.65741   2.66145
 Alpha virt. eigenvalues --    2.67525   2.67618   2.67998   2.70385   2.74812
 Alpha virt. eigenvalues --    2.77978   2.79891   2.82083   2.83251   2.88328
 Alpha virt. eigenvalues --    2.89514   2.91013   2.92298   2.93985   2.99479
 Alpha virt. eigenvalues --    3.02259   3.08849   3.09139   3.11375   3.15873
 Alpha virt. eigenvalues --    3.16591   3.17008   3.18219   3.22854   3.26621
 Alpha virt. eigenvalues --    3.33029   3.34622   3.36281   3.39820   3.40791
 Alpha virt. eigenvalues --    3.44575   3.44758   3.52008   3.54474   3.55650
 Alpha virt. eigenvalues --    3.57565   3.61111   3.63526   3.64067   3.66192
 Alpha virt. eigenvalues --    3.70324   3.74231   3.79591   3.82451   3.82772
 Alpha virt. eigenvalues --    3.87530   3.93609   3.93931   3.97476   3.99500
 Alpha virt. eigenvalues --    4.04767   4.12315   4.14713   4.15017   4.15799
 Alpha virt. eigenvalues --    4.17189   4.17721   4.20507   4.25666   4.33507
 Alpha virt. eigenvalues --    4.34596   4.38686   4.38783   4.43099   4.46496
 Alpha virt. eigenvalues --    4.51114   4.52001   4.55306   4.58615   4.65117
 Alpha virt. eigenvalues --    4.67013   4.67840   4.67874   4.74484   4.79681
 Alpha virt. eigenvalues --    4.86101   4.86220   4.92999   4.99829   5.01821
 Alpha virt. eigenvalues --    5.11562   5.20430   5.32159   5.39840   5.47357
 Alpha virt. eigenvalues --    5.52135   5.58490   5.60014   5.76491   5.76699
 Alpha virt. eigenvalues --    5.81752   5.84774   5.89472   5.91503   5.94412
 Alpha virt. eigenvalues --    5.97275   6.00698   6.01414   6.07520   6.11046
 Alpha virt. eigenvalues --    6.14636   6.16690   6.22467   6.23012   6.23689
 Alpha virt. eigenvalues --    6.28808   6.35916   6.36014   6.37724   6.39315
 Alpha virt. eigenvalues --    6.43077   6.44513   6.49746   6.53427   6.53567
 Alpha virt. eigenvalues --    6.57349   6.58131   6.60654   6.65645   6.65985
 Alpha virt. eigenvalues --    6.66032   6.74865   6.78444   6.86990   6.87220
 Alpha virt. eigenvalues --    6.90843   6.91857   6.99213   7.02639   7.04354
 Alpha virt. eigenvalues --    7.08776   7.11888   7.14952   7.21683   7.22807
 Alpha virt. eigenvalues --    7.24311   7.28135   7.32211   7.32420   7.35112
 Alpha virt. eigenvalues --    7.41843   7.43104   7.44499   7.46328   7.51685
 Alpha virt. eigenvalues --    7.53639   7.56144   7.58638   7.65776   7.70071
 Alpha virt. eigenvalues --    7.71350   7.73917   7.78656   7.80740   7.87011
 Alpha virt. eigenvalues --    7.90487   7.92707   7.93404   7.99510   8.03753
 Alpha virt. eigenvalues --    8.04024   8.06597   8.08502   8.11401   8.13973
 Alpha virt. eigenvalues --    8.15878   8.18953   8.22522   8.23955   8.24515
 Alpha virt. eigenvalues --    8.27863   8.27978   8.34367   8.34816   8.40500
 Alpha virt. eigenvalues --    8.44520   8.48176   8.51186   8.54144   8.54717
 Alpha virt. eigenvalues --    8.58042   8.65034   8.65783   8.67575   8.68001
 Alpha virt. eigenvalues --    8.75313   8.80614   8.82546   8.85600   8.87077
 Alpha virt. eigenvalues --    8.87119   8.92660   8.95757   8.98916   9.01436
 Alpha virt. eigenvalues --    9.05776   9.09457   9.11580   9.16183   9.19374
 Alpha virt. eigenvalues --    9.20980   9.24879   9.27795   9.30335   9.31614
 Alpha virt. eigenvalues --    9.38013   9.38673   9.40774   9.56406   9.58462
 Alpha virt. eigenvalues --    9.62042   9.62620   9.65855   9.71159   9.77142
 Alpha virt. eigenvalues --    9.81418   9.89604   9.92689  10.14736  10.20404
 Alpha virt. eigenvalues --   10.26232  10.27127  10.28470  10.31271  10.34775
 Alpha virt. eigenvalues --   10.41115  10.42486  10.45014  10.47593  10.52023
 Alpha virt. eigenvalues --   10.58426  10.61333  10.68542  10.70974  10.75881
 Alpha virt. eigenvalues --   10.78280  10.87722  10.87952  10.95988  10.96742
 Alpha virt. eigenvalues --   11.02303  11.02945  11.11966  11.29056  11.33043
 Alpha virt. eigenvalues --   11.45155  11.48600  11.59810  11.60298  11.62521
 Alpha virt. eigenvalues --   11.66226  11.86173  11.89835  11.91886  12.02173
 Alpha virt. eigenvalues --   12.04049  12.09192  12.18250  12.22259  12.27072
 Alpha virt. eigenvalues --   12.28569  12.30995  12.40501  12.42725  12.44416
 Alpha virt. eigenvalues --   12.59099  12.72729  12.76146  12.77529  12.81672
 Alpha virt. eigenvalues --   12.90074  12.92727  13.04475  13.19278  13.44112
 Alpha virt. eigenvalues --   13.63524  13.90621  14.11370  14.27522  14.37346
 Alpha virt. eigenvalues --   14.42185  14.56381  14.69081  14.73262  16.72418
 Alpha virt. eigenvalues --   24.83558  26.73161  34.80594  43.00421  44.08511
          Condensed to atoms (all electrons):
               1          2          3          4          5          6
     1  C    4.198673   0.434955   0.705630  -0.049620   0.330958  -0.093520
     2  O    0.434955   7.836051  -0.092410   0.330966  -0.088197  -0.008069
     3  O    0.705630  -0.092410   7.909973   0.011222  -0.083171   0.011099
     4  H   -0.049620   0.330966   0.011222   0.421424   0.019580  -0.005405
     5  C    0.330958  -0.088197  -0.083171   0.019580   4.893210   0.264986
     6  N   -0.093520  -0.008069   0.011099  -0.005405   0.264986   6.430174
     7  H   -0.040019   0.001285   0.003960  -0.000800   0.405770  -0.016333
     8  H   -0.040019   0.001285   0.003960  -0.000800   0.405770  -0.016333
     9  H   -0.003667   0.002102  -0.000035  -0.000155  -0.028531   0.403238
    10  H   -0.003667   0.002102  -0.000035  -0.000155  -0.028531   0.403238
               7          8          9         10
     1  C   -0.040019  -0.040019  -0.003667  -0.003667
     2  O    0.001285   0.001285   0.002102   0.002102
     3  O    0.003960   0.003960  -0.000035  -0.000035
     4  H   -0.000800  -0.000800  -0.000155  -0.000155
     5  C    0.405770   0.405770  -0.028531  -0.028531
     6  N   -0.016333  -0.016333   0.403238   0.403238
     7  H    0.540944  -0.010678   0.006164  -0.007128
     8  H   -0.010678   0.540944  -0.007128   0.006164
     9  H    0.006164  -0.007128   0.518132  -0.033855
    10  H   -0.007128   0.006164  -0.033855   0.518132
 Mulliken charges:
               1
     1  C    0.560297
     2  O   -0.420070
     3  O   -0.470194
     4  H    0.273745
     5  C   -0.091845
     6  N   -0.373074
     7  H    0.116835
     8  H    0.116835
     9  H    0.143736
    10  H    0.143736
 Sum of Mulliken charges =  -0.00000
 Mulliken charges with hydrogens summed into heavy atoms:
               1
     1  C    0.560297
     2  O   -0.146325
     3  O   -0.470194
     5  C    0.141824
     6  N   -0.085603
 Electronic spatial extent (au):  <R**2>=            415.2964
 Charge=             -0.0000 electrons
 Dipole moment (field-independent basis, Debye):
    X=             -1.7910    Y=             -1.0147    Z=              0.0000  Tot=              2.0584
 Quadrupole moment (field-independent basis, Debye-Ang):
   XX=            -27.7511   YY=            -37.0114   ZZ=            -27.1304
   XY=             -2.2012   XZ=             -0.0000   YZ=             -0.0000
 Traceless Quadrupole moment (field-independent basis, Debye-Ang):
   XX=              2.8799   YY=             -6.3804   ZZ=              3.5006
   XY=             -2.2012   XZ=             -0.0000   YZ=             -0.0000
 Octapole moment (field-independent basis, Debye-Ang**2):
  XXX=             -8.7133  YYY=              4.5982  ZZZ=             -0.0000  XYY=            -19.3987
  XXY=              6.8353  XXZ=             -0.0000  XZZ=             -0.9121  YZZ=             -2.2065
  YYZ=              0.0000  XYZ=              0.0000
 Hexadecapole moment (field-independent basis, Debye-Ang**3):
 XXXX=           -130.5848 YYYY=           -373.3438 ZZZZ=            -33.8652 XXXY=             -0.4687
 XXXZ=             -0.0000 YYYX=             23.4773 YYYZ=             -0.0000 ZZZX=              0.0000
 ZZZY=              0.0000 XXYY=            -71.5607 XXZZ=            -28.2693 YYZZ=            -53.0895
 XXYZ=              0.0000 YYXZ=             -0.0000 ZZXY=              5.7782
 N-N= 1.800072559301D+02 E-N=-1.026484238489D+03  KE= 2.826750738797D+02
 Symmetry A'   KE= 2.698381823459D+02
 Symmetry A"   KE= 1.283689153375D+01
 Leave Link  601 at Fri Jan 15 14:05:45 2021, MaxMem= 13421772800 cpu:              11.4 elap:               1.0
 (Enter /data2/software/Gaussian/g16_c01-gpu/g16/l9999.exe)
 Unable to Open any file for archive entry.
 1\1\GINC-CU05\SP\RMP2-FC\CC-pVQZ\C2H5N1O2\SHUCHONG\15-Jan-2021\0\\#p M
 P2 cc-pVQZ\\start best geom PCCP paper\\0,1\C\O,1,1.34824\O,1,1.20339,
 2,122.72896\H,2,0.965621,1,106.37597,3,0.,0\C,1,1.51736,3,123.80161,2,
 180.,0\N,5,1.44458,1,118.62999,3,180.,0\H,5,1.0899,1,105.95621,3,56.19
 793,0\H,5,1.0899,1,105.95621,3,-56.19793,0\H,6,1.00975,5,111.34671,1,5
 9.71795,0\H,6,1.00975,5,111.34671,1,-59.71795,0\\Version=AM64L-G16RevC
 .01\State=1-A'\HF=-282.9662786\MP2=-284.0490061\RMSD=2.901e-09\PG=CS [
 SG(C2H1N1O2),X(H4)]\\@
 The archive entry for this job was punched.


 A MATHEMATICIAN IS A MACHINE FOR TURNING COFFEE INTO THEOREMS.
     -- QUOTED BY PAUL ERDOS
 Job cpu time:       0 days  0 hours 37 minutes 53.8 seconds.
 Elapsed time:       0 days  0 hours  2 minutes 46.2 seconds.
 File lengths (MBytes):  RWF=     74 Int=      0 D2E=      0 Chk=     13 Scr=      1
 Normal termination of Gaussian 16 at Fri Jan 15 14:05:45 2021.
