 Entering Gaussian System, Link 0=g16
 Input=ttc_Best_geom_MP2_cc-pVQZ.gjf
 Output=ttc_Best_geom_MP2_cc-pVQZ.log
 Initial command:
 /data2/software/Gaussian/g16_c01-gpu/g16/l1.exe "/home/shuchong/scratch/Gau-6867.inp" -scrdir="/home/shuchong/scratch/"
 Entering Link 1 = /data2/software/Gaussian/g16_c01-gpu/g16/l1.exe PID=      6868.
  
 Copyright (c) 1988-2019, Gaussian, Inc.  All Rights Reserved.
  
 This is part of the Gaussian(R) 16 program.  It is based on
 the Gaussian(R) 09 system (copyright 2009, Gaussian, Inc.),
 the Gaussian(R) 03 system (copyright 2003, Gaussian, Inc.),
 the Gaussian(R) 98 system (copyright 1998, Gaussian, Inc.),
 the Gaussian(R) 94 system (copyright 1995, Gaussian, Inc.),
 the Gaussian 92(TM) system (copyright 1992, Gaussian, Inc.),
 the Gaussian 90(TM) system (copyright 1990, Gaussian, Inc.),
 the Gaussian 88(TM) system (copyright 1988, Gaussian, Inc.),
 the Gaussian 86(TM) system (copyright 1986, Carnegie Mellon
 University), and the Gaussian 82(TM) system (copyright 1983,
 Carnegie Mellon University). Gaussian is a federally registered
 trademark of Gaussian, Inc.
  
 This software contains proprietary and confidential information,
 including trade secrets, belonging to Gaussian, Inc.
  
 This software is provided under written license and may be
 used, copied, transmitted, or stored only in accord with that
 written license.
  
 The following legend is applicable only to US Government
 contracts under FAR:
  
                    RESTRICTED RIGHTS LEGEND
  
 Use, reproduction and disclosure by the US Government is
 subject to restrictions as set forth in subparagraphs (a)
 and (c) of the Commercial Computer Software - Restricted
 Rights clause in FAR 52.227-19.
  
 Gaussian, Inc.
 340 Quinnipiac St., Bldg. 40, Wallingford CT 06492
  
  
 ---------------------------------------------------------------
 Warning -- This program may not be used in any manner that
 competes with the business of Gaussian, Inc. or will provide
 assistance to any competitor of Gaussian, Inc.  The licensee
 of this program is prohibited from giving any competitor of
 Gaussian, Inc. access to this program.  By using this program,
 the user acknowledges that Gaussian, Inc. is engaged in the
 business of creating and licensing software in the field of
 computational chemistry and represents and warrants to the
 licensee that it is not a competitor of Gaussian, Inc. and that
 it will not use this program in any manner prohibited above.
 ---------------------------------------------------------------
  

 Cite this work as:
 Gaussian 16, Revision C.01,
 M. J. Frisch, G. W. Trucks, H. B. Schlegel, G. E. Scuseria, 
 M. A. Robb, J. R. Cheeseman, G. Scalmani, V. Barone, 
 G. A. Petersson, H. Nakatsuji, X. Li, M. Caricato, A. V. Marenich, 
 J. Bloino, B. G. Janesko, R. Gomperts, B. Mennucci, H. P. Hratchian, 
 J. V. Ortiz, A. F. Izmaylov, J. L. Sonnenberg, D. Williams-Young, 
 F. Ding, F. Lipparini, F. Egidi, J. Goings, B. Peng, A. Petrone, 
 T. Henderson, D. Ranasinghe, V. G. Zakrzewski, J. Gao, N. Rega, 
 G. Zheng, W. Liang, M. Hada, M. Ehara, K. Toyota, R. Fukuda, 
 J. Hasegawa, M. Ishida, T. Nakajima, Y. Honda, O. Kitao, H. Nakai, 
 T. Vreven, K. Throssell, J. A. Montgomery, Jr., J. E. Peralta, 
 F. Ogliaro, M. J. Bearpark, J. J. Heyd, E. N. Brothers, K. N. Kudin, 
 V. N. Staroverov, T. A. Keith, R. Kobayashi, J. Normand, 
 K. Raghavachari, A. P. Rendell, J. C. Burant, S. S. Iyengar, 
 J. Tomasi, M. Cossi, J. M. Millam, M. Klene, C. Adamo, R. Cammi, 
 J. W. Ochterski, R. L. Martin, K. Morokuma, O. Farkas, 
 J. B. Foresman, and D. J. Fox, Gaussian, Inc., Wallingford CT, 2019.
 
 ******************************************
 Gaussian 16:  AM64L-G16RevC.01  3-Jul-2019
                15-Jan-2021 
 ******************************************
 %chk=ttc_Best_geom_MP2_cc-pVQZ.chk
 %nprocshared=28
 Will use up to   28 processors via shared memory.
 %mem=100GB
 --------------
 #p MP2 cc-pVQZ
 --------------
 1/38=1,172=1/1;
 2/12=2,17=6,18=5,40=1/2;
 3/5=16,6=2,11=9,25=1,30=1/1,2,3;
 4//1;
 5/5=2,38=5/2;
 8/10=1/1;
 9/16=-3/6;
 6/7=2,8=2,9=2,10=2/1;
 99/5=1,9=1/99;
 Leave Link    1 at Fri Jan 15 14:05:46 2021, MaxMem= 13421772800 cpu:               6.5 elap:               0.4
 (Enter /data2/software/Gaussian/g16_c01-gpu/g16/l101.exe)
 --------------------------
 start best geom PCCP paper
 --------------------------
 Symbolic Z-matrix:
 Charge =  0 Multiplicity = 1
 C
 O                    1    B1
 O                    1    B2       2    A1
 H                    2    B3       1    A2       3    D1       0
 C                    1    B4       3    A3       2    D2       0
 N                    5    B5       1    A4       3    D3       0
 H                    5    B6       1    A5       3    D4       0
 H                    5    B7       1    A6       3    D5       0
 H                    6    B8       5    A7       1    D6       0
 H                    6    B9       5    A8       1    D7       0
       Variables:
  B1                    1.35431                  
  B2                    1.19608                  
  B3                    0.96191                  
  B4                    1.52269                  
  B5                    1.44073                  
  B6                    1.09261                  
  B7                    1.09261                  
  B8                    1.01113                  
  B9                    1.01113                  
  A1                  120.26189                  
  A2                  110.63119                  
  A3                  124.62553                  
  A4                  115.35662                  
  A5                  107.80356                  
  A6                  107.80356                  
  A7                  110.22995                  
  A8                  110.22995                  
  D1                  180.                       
  D2                  180.                       
  D3                    0.                       
  D4                 -122.62433                  
  D5                  122.62433                  
  D6                  -58.35404                  
  D7                   58.35404                  
 
 ITRead=  0  0  0  0  0  0  0  0  0  0
 MicOpt= -1 -1 -1 -1 -1 -1 -1 -1 -1 -1
 NAtoms=     10 NQM=       10 NQMF=       0 NMMI=      0 NMMIF=      0
                NMic=       0 NMicF=      0.
                    Isotopes and Nuclear Properties:
 (Nuclear quadrupole moments (NQMom) in fm**2, nuclear magnetic moments (NMagM)
  in nuclear magnetons)

  Atom         1           2           3           4           5           6           7           8           9          10
 IAtWgt=          12          16          16           1          12          14           1           1           1           1
 AtmWgt=  12.0000000  15.9949146  15.9949146   1.0078250  12.0000000  14.0030740   1.0078250   1.0078250   1.0078250   1.0078250
 NucSpn=           0           0           0           1           0           2           1           1           1           1
 AtZEff=  -0.0000000  -0.0000000  -0.0000000  -0.0000000  -0.0000000  -0.0000000  -0.0000000  -0.0000000  -0.0000000  -0.0000000
 NQMom=    0.0000000   0.0000000   0.0000000   0.0000000   0.0000000   2.0440000   0.0000000   0.0000000   0.0000000   0.0000000
 NMagM=    0.0000000   0.0000000   0.0000000   2.7928460   0.0000000   0.4037610   2.7928460   2.7928460   2.7928460   2.7928460
 AtZNuc=   6.0000000   8.0000000   8.0000000   1.0000000   6.0000000   7.0000000   1.0000000   1.0000000   1.0000000   1.0000000
 Leave Link  101 at Fri Jan 15 14:05:46 2021, MaxMem= 13421772800 cpu:               1.8 elap:               0.1
 (Enter /data2/software/Gaussian/g16_c01-gpu/g16/l202.exe)
                          Input orientation:                          
 ---------------------------------------------------------------------
 Center     Atomic      Atomic             Coordinates (Angstroms)
 Number     Number       Type             X           Y           Z
 ---------------------------------------------------------------------
      1          6           0        0.000000    0.000000    0.000000
      2          8           0        0.000000    0.000000    1.354310
      3          8           0        1.033091    0.000000   -0.602768
      4          1           0       -0.900217    0.000000    1.693239
      5          6           0       -1.378759    0.000000   -0.646227
      6          7           0       -1.384895    0.000000   -2.086944
      7          1           0       -1.919274    0.876153   -0.280172
      8          1           0       -1.919274   -0.876153   -0.280172
      9          1           0       -0.888606    0.807682   -2.438698
     10          1           0       -0.888606   -0.807682   -2.438698
 ---------------------------------------------------------------------
                    Distance matrix (angstroms):
                    1          2          3          4          5
     1  C    0.000000
     2  O    1.354310   0.000000
     3  O    1.196080   2.213015   0.000000
     4  H    1.917667   0.961906   3.001554   0.000000
     5  C    1.522690   2.429634   2.412242   2.387907   0.000000
     6  N    2.504650   3.709469   2.837153   3.811128   1.440730
     7  H    2.128322   2.668855   3.096477   2.387566   1.092610
     8  H    2.128322   2.668855   3.096477   2.387566   1.092610
     9  H    2.718312   3.978553   2.777753   4.210153   2.026216
    10  H    2.718312   3.978553   2.777753   4.210153   2.026216
                    6          7          8          9         10
     6  N    0.000000
     7  H    2.077890   0.000000
     8  H    2.077890   1.752306   0.000000
     9  H    1.011130   2.392948   2.925203   0.000000
    10  H    1.011130   2.925203   2.392948   1.615364   0.000000
 Stoichiometry    C2H5NO2
 Framework group  CS[SG(C2HNO2),X(H4)]
 Deg. of freedom    15
 Full point group                 CS      NOp   2
 Largest Abelian subgroup         CS      NOp   2
 Largest concise Abelian subgroup CS      NOp   2
                         Standard orientation:                         
 ---------------------------------------------------------------------
 Center     Atomic      Atomic             Coordinates (Angstroms)
 Number     Number       Type             X           Y           Z
 ---------------------------------------------------------------------
      1          6           0        0.000000    0.573396   -0.000000
      2          8           0        0.957640    1.531040   -0.000000
      3          8           0       -1.156728    0.877678   -0.000000
      4          1           0        1.833849    1.134152   -0.000000
      5          6           0        0.517981   -0.858483    0.000000
      6          7           0       -0.496418   -1.881566    0.000000
      7          1           0        1.159024   -0.981844    0.876153
      8          1           0        1.159024   -0.981844   -0.876153
      9          1           0       -1.096075   -1.779366    0.807682
     10          1           0       -1.096075   -1.779366   -0.807682
 ---------------------------------------------------------------------
 Rotational constants (GHZ):          10.2385392           3.9139580           2.9253534
 Leave Link  202 at Fri Jan 15 14:05:46 2021, MaxMem= 13421772800 cpu:               1.5 elap:               0.1
 (Enter /data2/software/Gaussian/g16_c01-gpu/g16/l301.exe)
 Standard basis: CC-pVQZ (5D, 7F)
 Ernie: Thresh=  0.10000D-02 Tol=  0.10000D-05 Strict=F.
 Ernie:  15 primitive shells out of 225 were deleted.
 There are   324 symmetry adapted cartesian basis functions of A'  symmetry.
 There are   201 symmetry adapted cartesian basis functions of A"  symmetry.
 There are   255 symmetry adapted basis functions of A'  symmetry.
 There are   170 symmetry adapted basis functions of A"  symmetry.
   425 basis functions,   630 primitive gaussians,   525 cartesian basis functions
    20 alpha electrons       20 beta electrons
       nuclear repulsion energy       179.6626220275 Hartrees.
 IExCor=    0 DFT=F Ex=HF Corr=None ExCW=0 ScaHFX=  1.000000
 ScaDFX=  1.000000  1.000000  1.000000  1.000000 ScalE2=  1.000000  1.000000
 IRadAn=      5 IRanWt=     -1 IRanGd=            0 ICorTp=0 IEmpDi=  4
 NAtoms=   10 NActive=   10 NUniq=    8 SFac= 1.56D+00 NAtFMM=   60 NAOKFM=F Big=F
 Integral buffers will be    131072 words long.
 Raffenetti 1 integral format.
 Two-electron integral symmetry is turned on.
 Leave Link  301 at Fri Jan 15 14:05:46 2021, MaxMem= 13421772800 cpu:               1.7 elap:               0.1
 (Enter /data2/software/Gaussian/g16_c01-gpu/g16/l302.exe)
 NPDir=0 NMtPBC=     1 NCelOv=     1 NCel=       1 NClECP=     1 NCelD=      1
         NCelK=      1 NCelE2=     1 NClLst=     1 CellRange=     0.0.
 One-electron integrals computed using PRISM.
 One-electron integral symmetry used in STVInt
 NBasis=   425 RedAO= T EigKep=  8.16D-05  NBF=   255   170
 NBsUse=   425 1.00D-06 EigRej= -1.00D+00 NBFU=   255   170
 Leave Link  302 at Fri Jan 15 14:05:55 2021, MaxMem= 13421772800 cpu:             134.2 elap:               8.4
 (Enter /data2/software/Gaussian/g16_c01-gpu/g16/l303.exe)
 DipDrv:  MaxL=1.
 Leave Link  303 at Fri Jan 15 14:05:57 2021, MaxMem= 13421772800 cpu:              40.9 elap:               2.6
 (Enter /data2/software/Gaussian/g16_c01-gpu/g16/l401.exe)
 ExpMin= 8.99D-02 ExpMax= 6.14D+04 ExpMxC= 5.91D+02 IAcc=3 IRadAn=         5 AccDes= 0.00D+00
 Harris functional with IExCor=  205 and IRadAn=       5 diagonalized for initial guess.
 HarFok:  IExCor=  205 AccDes= 0.00D+00 IRadAn=         5 IDoV= 1 UseB2=F ITyADJ=14
 ICtDFT=  3500011 ScaDFX=  1.000000  1.000000  1.000000  1.000000
 FoFCou: FMM=F IPFlag=           0 FMFlag=      100000 FMFlg1=           0
         NFxFlg=           0 DoJE=T BraDBF=F KetDBF=T FulRan=T
         wScrn=  0.000000 ICntrl=       500 IOpCl=  0 I1Cent=   200000004 NGrid=           0
         NMat0=    1 NMatS0=      1 NMatT0=    0 NMatD0=    1 NMtDS0=    0 NMtDT0=    0
 Petite list used in FoFCou.
 Harris En= -283.247745982912    
 JPrj=0 DoOrth=F DoCkMO=F.
 Initial guess orbital symmetries:
       Occupied  (A') (A') (A') (A') (A') (A') (A') (A') (A') (A')
                 (A') (A") (A') (A') (A") (A') (A") (A") (A') (A')
       Virtual   (A") (A') (A') (A") (A') (A") (A') (A') (A') (A')
                 (A") (A') (A') (A") (A') (A') (A") (A') (A') (A")
                 (A') (A') (A") (A') (A") (A') (A') (A') (A") (A')
                 (A") (A') (A') (A') (A") (A") (A') (A') (A') (A")
                 (A") (A') (A") (A') (A") (A') (A') (A") (A") (A')
                 (A') (A') (A') (A") (A') (A") (A') (A') (A') (A")
                 (A') (A') (A") (A') (A') (A") (A") (A') (A') (A')
                 (A") (A') (A") (A') (A") (A') (A') (A") (A') (A')
                 (A') (A") (A") (A') (A') (A") (A') (A") (A') (A")
                 (A') (A') (A") (A') (A") (A") (A') (A") (A') (A')
                 (A") (A') (A") (A') (A") (A') (A") (A') (A") (A')
                 (A") (A') (A") (A') (A') (A') (A") (A') (A') (A")
                 (A') (A") (A") (A') (A") (A') (A") (A') (A') (A")
                 (A') (A") (A") (A') (A') (A') (A") (A') (A') (A')
                 (A") (A') (A') (A") (A') (A") (A') (A') (A") (A')
                 (A") (A') (A") (A') (A') (A') (A") (A') (A') (A")
                 (A") (A") (A') (A') (A') (A") (A') (A') (A') (A")
                 (A') (A") (A') (A") (A') (A") (A") (A') (A') (A')
                 (A") (A') (A") (A') (A") (A') (A') (A") (A') (A")
                 (A') (A') (A") (A') (A") (A') (A') (A') (A') (A")
                 (A') (A") (A') (A") (A') (A') (A") (A') (A") (A')
                 (A') (A") (A") (A") (A') (A') (A") (A') (A") (A")
                 (A') (A') (A") (A") (A') (A') (A") (A') (A") (A')
                 (A") (A") (A') (A') (A') (A") (A") (A') (A") (A")
                 (A') (A') (A') (A") (A') (A") (A') (A") (A") (A')
                 (A') (A") (A') (A") (A') (A') (A") (A') (A") (A")
                 (A') (A") (A') (A') (A') (A") (A') (A") (A') (A')
                 (A") (A") (A') (A') (A') (A') (A') (A") (A") (A')
                 (A') (A") (A') (A") (A") (A') (A") (A') (A') (A")
                 (A') (A') (A") (A') (A") (A') (A') (A") (A') (A")
                 (A') (A") (A') (A") (A') (A") (A') (A") (A") (A')
                 (A') (A") (A') (A') (A') (A') (A') (A") (A') (A")
                 (A') (A") (A") (A') (A') (A') (A") (A') (A") (A")
                 (A') (A') (A") (A') (A') (A") (A') (A") (A') (A')
                 (A") (A') (A") (A') (A") (A") (A') (A") (A") (A')
                 (A") (A') (A') (A") (A') (A") (A") (A') (A') (A')
                 (A') (A") (A') (A") (A') (A') (A") (A') (A') (A")
                 (A') (A') (A') (A") (A") (A') (A") (A") (A') (A')
                 (A") (A") (A') (A") (A') (A') (A") (A') (A") (A')
                 (A') (A") (A') (A') (A') (A") (A') (A") (A') (A')
                 (A') (A') (A') (A') (A')
 The electronic state of the initial guess is 1-A'.
 Leave Link  401 at Fri Jan 15 14:06:03 2021, MaxMem= 13421772800 cpu:              90.9 elap:               5.7
 (Enter /data2/software/Gaussian/g16_c01-gpu/g16/l502.exe)
 Keep R1 ints in memory in symmetry-blocked form, NReq=6150019474.
 FoFCou: FMM=F IPFlag=           0 FMFlag=           0 FMFlg1=           0
         NFxFlg=           0 DoJE=F BraDBF=F KetDBF=F FulRan=T
         wScrn=  0.000000 ICntrl=       600 IOpCl=  0 I1Cent=           0 NGrid=           0
         NMat0=    1 NMatS0=  90525 NMatT0=    0 NMatD0=    1 NMtDS0=    0 NMtDT0=    0
 Petite list used in FoFCou.
 Closed shell SCF:
 Using DIIS extrapolation, IDIIS=  1040.
 NGot= 13421772800 LenX= 11368618685 LenY= 11368342535
 Requested convergence on RMS density matrix=1.00D-08 within 128 cycles.
 Requested convergence on MAX density matrix=1.00D-06.
 Requested convergence on             energy=1.00D-06.
 No special actions if energy rises.

 Cycle   1  Pass 1  IDiag  1:
 E= -282.712411494458    
 DIIS: error= 2.83D-02 at cycle   1 NSaved=   1.
 NSaved= 1 IEnMin= 1 EnMin= -282.712411494458     IErMin= 1 ErrMin= 2.83D-02
 ErrMax= 2.83D-02  0.00D+00 EMaxC= 1.00D-01 BMatC= 6.58D-01 BMatP= 6.58D-01
 IDIUse=3 WtCom= 7.17D-01 WtEn= 2.83D-01
 Coeff-Com:  0.100D+01
 Coeff-En:   0.100D+01
 Coeff:      0.100D+01
 Gap=     0.433 Goal=   None    Shift=    0.000
 GapD=    0.433 DampG=2.000 DampE=0.500 DampFc=1.0000 IDamp=-1.
 RMSDP=1.21D-03 MaxDP=1.00D-01              OVMax= 1.31D-01

 Cycle   2  Pass 1  IDiag  1:
 E= -282.900704188587     Delta-E=       -0.188292694130 Rises=F Damp=F
 DIIS: error= 1.37D-02 at cycle   2 NSaved=   2.
 NSaved= 2 IEnMin= 2 EnMin= -282.900704188587     IErMin= 2 ErrMin= 1.37D-02
 ErrMax= 1.37D-02  0.00D+00 EMaxC= 1.00D-01 BMatC= 8.90D-02 BMatP= 6.58D-01
 IDIUse=3 WtCom= 8.63D-01 WtEn= 1.37D-01
 Coeff-Com:  0.199D+00 0.801D+00
 Coeff-En:   0.000D+00 0.100D+01
 Coeff:      0.172D+00 0.828D+00
 Gap=     0.540 Goal=   None    Shift=    0.000
 RMSDP=7.66D-04 MaxDP=8.35D-02 DE=-1.88D-01 OVMax= 5.68D-02

 Cycle   3  Pass 1  IDiag  1:
 E= -282.951579846171     Delta-E=       -0.050875657584 Rises=F Damp=F
 DIIS: error= 8.64D-03 at cycle   3 NSaved=   3.
 NSaved= 3 IEnMin= 3 EnMin= -282.951579846171     IErMin= 3 ErrMin= 8.64D-03
 ErrMax= 8.64D-03  0.00D+00 EMaxC= 1.00D-01 BMatC= 1.36D-02 BMatP= 8.90D-02
 IDIUse=3 WtCom= 9.14D-01 WtEn= 8.64D-02
 Coeff-Com: -0.221D-01 0.255D+00 0.767D+00
 Coeff-En:   0.000D+00 0.000D+00 0.100D+01
 Coeff:     -0.202D-01 0.233D+00 0.787D+00
 Gap=     0.511 Goal=   None    Shift=    0.000
 RMSDP=1.19D-04 MaxDP=6.80D-03 DE=-5.09D-02 OVMax= 3.04D-02

 Cycle   4  Pass 1  IDiag  1:
 E= -282.960060714352     Delta-E=       -0.008480868181 Rises=F Damp=F
 DIIS: error= 1.29D-03 at cycle   4 NSaved=   4.
 NSaved= 4 IEnMin= 4 EnMin= -282.960060714352     IErMin= 4 ErrMin= 1.29D-03
 ErrMax= 1.29D-03  0.00D+00 EMaxC= 1.00D-01 BMatC= 5.27D-04 BMatP= 1.36D-02
 IDIUse=3 WtCom= 9.87D-01 WtEn= 1.29D-02
 Coeff-Com: -0.108D-01 0.529D-01 0.253D+00 0.705D+00
 Coeff-En:   0.000D+00 0.000D+00 0.000D+00 0.100D+01
 Coeff:     -0.106D-01 0.523D-01 0.250D+00 0.709D+00
 Gap=     0.507 Goal=   None    Shift=    0.000
 RMSDP=4.12D-05 MaxDP=3.43D-03 DE=-8.48D-03 OVMax= 5.50D-03

 Cycle   5  Pass 1  IDiag  1:
 E= -282.960489343534     Delta-E=       -0.000428629182 Rises=F Damp=F
 DIIS: error= 6.38D-04 at cycle   5 NSaved=   5.
 NSaved= 5 IEnMin= 5 EnMin= -282.960489343534     IErMin= 5 ErrMin= 6.38D-04
 ErrMax= 6.38D-04  0.00D+00 EMaxC= 1.00D-01 BMatC= 2.96D-05 BMatP= 5.27D-04
 IDIUse=3 WtCom= 9.94D-01 WtEn= 6.38D-03
 Coeff-Com:  0.213D-02-0.253D-01-0.813D-01 0.138D-01 0.109D+01
 Coeff-En:   0.000D+00 0.000D+00 0.000D+00 0.000D+00 0.100D+01
 Coeff:      0.212D-02-0.251D-01-0.807D-01 0.137D-01 0.109D+01
 Gap=     0.508 Goal=   None    Shift=    0.000
 RMSDP=2.65D-05 MaxDP=2.19D-03 DE=-4.29D-04 OVMax= 3.98D-03

 Cycle   6  Pass 1  IDiag  1:
 E= -282.960546646404     Delta-E=       -0.000057302870 Rises=F Damp=F
 DIIS: error= 1.13D-04 at cycle   6 NSaved=   6.
 NSaved= 6 IEnMin= 6 EnMin= -282.960546646404     IErMin= 6 ErrMin= 1.13D-04
 ErrMax= 1.13D-04  0.00D+00 EMaxC= 1.00D-01 BMatC= 4.48D-06 BMatP= 2.96D-05
 IDIUse=3 WtCom= 9.99D-01 WtEn= 1.13D-03
 Coeff-Com:  0.141D-02-0.106D-01-0.400D-01-0.758D-01 0.209D+00 0.916D+00
 Coeff-En:   0.000D+00 0.000D+00 0.000D+00 0.000D+00 0.000D+00 0.100D+01
 Coeff:      0.141D-02-0.106D-01-0.400D-01-0.757D-01 0.208D+00 0.917D+00
 Gap=     0.508 Goal=   None    Shift=    0.000
 RMSDP=9.90D-06 MaxDP=9.61D-04 DE=-5.73D-05 OVMax= 1.11D-03

 Cycle   7  Pass 1  IDiag  1:
 E= -282.960554628122     Delta-E=       -0.000007981717 Rises=F Damp=F
 DIIS: error= 6.15D-05 at cycle   7 NSaved=   7.
 NSaved= 7 IEnMin= 7 EnMin= -282.960554628122     IErMin= 7 ErrMin= 6.15D-05
 ErrMax= 6.15D-05  0.00D+00 EMaxC= 1.00D-01 BMatC= 5.90D-07 BMatP= 4.48D-06
 IDIUse=1 WtCom= 1.00D+00 WtEn= 0.00D+00
 Coeff-Com: -0.207D-03 0.283D-02 0.109D-01-0.120D-01-0.129D+00 0.128D-01
 Coeff-Com:  0.111D+01
 Coeff:     -0.207D-03 0.283D-02 0.109D-01-0.120D-01-0.129D+00 0.128D-01
 Coeff:      0.111D+01
 Gap=     0.509 Goal=   None    Shift=    0.000
 RMSDP=3.25D-06 MaxDP=2.31D-04 DE=-7.98D-06 OVMax= 7.72D-04

 Cycle   8  Pass 1  IDiag  1:
 E= -282.960556142383     Delta-E=       -0.000001514261 Rises=F Damp=F
 DIIS: error= 2.06D-05 at cycle   8 NSaved=   8.
 NSaved= 8 IEnMin= 8 EnMin= -282.960556142383     IErMin= 8 ErrMin= 2.06D-05
 ErrMax= 2.06D-05  0.00D+00 EMaxC= 1.00D-01 BMatC= 8.32D-08 BMatP= 5.90D-07
 IDIUse=1 WtCom= 1.00D+00 WtEn= 0.00D+00
 Coeff-Com: -0.173D-03 0.127D-02 0.493D-02 0.609D-02-0.124D-01-0.117D+00
 Coeff-Com: -0.921D-01 0.121D+01
 Coeff:     -0.173D-03 0.127D-02 0.493D-02 0.609D-02-0.124D-01-0.117D+00
 Coeff:     -0.921D-01 0.121D+01
 Gap=     0.509 Goal=   None    Shift=    0.000
 RMSDP=1.22D-06 MaxDP=7.64D-05 DE=-1.51D-06 OVMax= 3.12D-04

 Cycle   9  Pass 1  IDiag  1:
 E= -282.960556364608     Delta-E=       -0.000000222225 Rises=F Damp=F
 DIIS: error= 7.92D-06 at cycle   9 NSaved=   9.
 NSaved= 9 IEnMin= 9 EnMin= -282.960556364608     IErMin= 9 ErrMin= 7.92D-06
 ErrMax= 7.92D-06  0.00D+00 EMaxC= 1.00D-01 BMatC= 1.11D-08 BMatP= 8.32D-08
 IDIUse=1 WtCom= 1.00D+00 WtEn= 0.00D+00
 Coeff-Com: -0.101D-04-0.102D-03-0.358D-03 0.205D-02 0.164D-01-0.264D-01
 Coeff-Com: -0.166D+00 0.241D+00 0.934D+00
 Coeff:     -0.101D-04-0.102D-03-0.358D-03 0.205D-02 0.164D-01-0.264D-01
 Coeff:     -0.166D+00 0.241D+00 0.934D+00
 Gap=     0.509 Goal=   None    Shift=    0.000
 RMSDP=4.41D-07 MaxDP=2.70D-05 DE=-2.22D-07 OVMax= 9.28D-05

 Cycle  10  Pass 1  IDiag  1:
 E= -282.960556387164     Delta-E=       -0.000000022556 Rises=F Damp=F
 DIIS: error= 2.56D-06 at cycle  10 NSaved=  10.
 NSaved=10 IEnMin=10 EnMin= -282.960556387164     IErMin=10 ErrMin= 2.56D-06
 ErrMax= 2.56D-06  0.00D+00 EMaxC= 1.00D-01 BMatC= 1.04D-09 BMatP= 1.11D-08
 IDIUse=1 WtCom= 1.00D+00 WtEn= 0.00D+00
 Coeff-Com:  0.233D-04-0.180D-03-0.654D-03-0.120D-02 0.224D-02 0.154D-01
 Coeff-Com:  0.176D-01-0.172D+00-0.196D-01 0.116D+01
 Coeff:      0.233D-04-0.180D-03-0.654D-03-0.120D-02 0.224D-02 0.154D-01
 Coeff:      0.176D-01-0.172D+00-0.196D-01 0.116D+01
 Gap=     0.509 Goal=   None    Shift=    0.000
 RMSDP=1.79D-07 MaxDP=1.08D-05 DE=-2.26D-08 OVMax= 2.77D-05

 Cycle  11  Pass 1  IDiag  1:
 E= -282.960556389664     Delta-E=       -0.000000002500 Rises=F Damp=F
 DIIS: error= 4.96D-07 at cycle  11 NSaved=  11.
 NSaved=11 IEnMin=11 EnMin= -282.960556389664     IErMin=11 ErrMin= 4.96D-07
 ErrMax= 4.96D-07  0.00D+00 EMaxC= 1.00D-01 BMatC= 6.18D-11 BMatP= 1.04D-09
 IDIUse=1 WtCom= 1.00D+00 WtEn= 0.00D+00
 Coeff-Com: -0.322D-06 0.125D-04 0.693D-04-0.828D-04-0.972D-03 0.683D-04
 Coeff-Com:  0.898D-02 0.997D-03-0.633D-01-0.119D+00 0.117D+01
 Coeff:     -0.322D-06 0.125D-04 0.693D-04-0.828D-04-0.972D-03 0.683D-04
 Coeff:      0.898D-02 0.997D-03-0.633D-01-0.119D+00 0.117D+01
 Gap=     0.509 Goal=   None    Shift=    0.000
 RMSDP=4.81D-08 MaxDP=3.81D-06 DE=-2.50D-09 OVMax= 4.79D-06

 Cycle  12  Pass 1  IDiag  1:
 E= -282.960556389816     Delta-E=       -0.000000000152 Rises=F Damp=F
 DIIS: error= 1.81D-07 at cycle  12 NSaved=  12.
 NSaved=12 IEnMin=12 EnMin= -282.960556389816     IErMin=12 ErrMin= 1.81D-07
 ErrMax= 1.81D-07  0.00D+00 EMaxC= 1.00D-01 BMatC= 3.86D-12 BMatP= 6.18D-11
 IDIUse=1 WtCom= 1.00D+00 WtEn= 0.00D+00
 Coeff-Com: -0.171D-05 0.134D-04 0.514D-04 0.796D-04-0.183D-03-0.114D-02
 Coeff-Com: -0.145D-02 0.141D-01-0.218D-03-0.911D-01 0.375D-01 0.104D+01
 Coeff:     -0.171D-05 0.134D-04 0.514D-04 0.796D-04-0.183D-03-0.114D-02
 Coeff:     -0.145D-02 0.141D-01-0.218D-03-0.911D-01 0.375D-01 0.104D+01
 Gap=     0.509 Goal=   None    Shift=    0.000
 RMSDP=9.83D-09 MaxDP=7.93D-07 DE=-1.52D-10 OVMax= 1.03D-06

 SCF Done:  E(RHF) =  -282.960556390     A.U. after   12 cycles
            NFock= 12  Conv=0.98D-08     -V/T= 2.0010
 KE= 2.826678788858D+02 PE=-1.025692764880D+03 EE= 2.804017075773D+02
 Leave Link  502 at Fri Jan 15 14:08:10 2021, MaxMem= 13421772800 cpu:            1713.8 elap:             126.8
 (Enter /data2/software/Gaussian/g16_c01-gpu/g16/l801.exe)
 ExpMin= 8.99D-02 ExpMax= 6.14D+04 ExpMxC= 5.91D+02 IAcc=3 IRadAn=         5 AccDes= 0.00D+00
 HarFok:  IExCor=  205 AccDes= 0.00D+00 IRadAn=         5 IDoV=-2 UseB2=F ITyADJ=14
 ICtDFT= 12500011 ScaDFX=  1.000000  1.000000  1.000000  1.000000
 Largest valence mixing into a core orbital is  1.86D-04
 Largest core mixing into a valence orbital is  2.95D-05
 Range of M.O.s used for correlation:     6   425
 NBasis=   425 NAE=    20 NBE=    20 NFC=     5 NFV=     0
 NROrb=    420 NOA=    15 NOB=    15 NVA=   405 NVB=   405

 **** Warning!!: The largest alpha MO coefficient is  0.21850983D+02

 Leave Link  801 at Fri Jan 15 14:08:12 2021, MaxMem= 13421772800 cpu:              27.7 elap:               1.8
 (Enter /data2/software/Gaussian/g16_c01-gpu/g16/l906.exe)
 FulOut=F Deriv=F AODrv=F NAtomX=    10
   MMem=         139  MDisk=          15 MDiskD=          15
  W3Min=     3189375 MinDsk=     4853450 NBas6D=         525
 NBas2D=      139755    NTT=      138075    LW2=     4508827
    MDV= 13420714116 MDiskM=       56798 NBas2p=      103177
 Fully direct method using O(OVN) memory.
 IMap=   1   2   3   4   5   6   7   8   9  10  11  12  13  14  15
 JobTyp=1 Pass  1:  I=   1 to  15 NPSUse= 28 ParTrn=T ParDer=T DoDerP=F.
 Spin components of T(2) and E(2):
     alpha-alpha T2 =       0.3632967038D-01 E2=     -0.1321420746D+00
     alpha-beta  T2 =       0.2043987781D+00 E2=     -0.8189820246D+00
     beta-beta   T2 =       0.3632967038D-01 E2=     -0.1321420746D+00
 The integrals were generated   1 times.
 ANorm=    0.1130069962D+01
 E2 =    -0.1083266174D+01 EUMP2 =    -0.28404382256371D+03
 Leave Link  906 at Fri Jan 15 14:10:55 2021, MaxMem= 13421772800 cpu:            2606.9 elap:             162.9
 (Enter /data2/software/Gaussian/g16_c01-gpu/g16/l601.exe)
 Copying SCF densities to generalized density rwf, IOpCl= 0 IROHF=0.

 **********************************************************************

            Population analysis using the SCF Density.

 **********************************************************************

 Orbital symmetries:
       Occupied  (A') (A') (A') (A') (A') (A') (A') (A') (A') (A')
                 (A') (A") (A') (A") (A') (A') (A") (A") (A') (A')
       Virtual   (A') (A') (A") (A') (A") (A") (A') (A') (A') (A")
                 (A') (A') (A") (A') (A') (A") (A') (A") (A') (A')
                 (A') (A') (A") (A') (A') (A") (A') (A") (A') (A')
                 (A") (A') (A') (A') (A") (A") (A') (A') (A") (A')
                 (A") (A') (A") (A') (A") (A') (A") (A') (A") (A')
                 (A') (A") (A') (A') (A') (A") (A') (A') (A') (A")
                 (A') (A') (A") (A') (A') (A") (A') (A") (A') (A')
                 (A") (A') (A") (A') (A") (A') (A") (A') (A') (A')
                 (A") (A') (A") (A') (A') (A") (A') (A") (A') (A")
                 (A') (A') (A") (A') (A") (A") (A') (A') (A") (A")
                 (A') (A") (A') (A") (A") (A') (A') (A") (A') (A')
                 (A") (A') (A") (A') (A') (A') (A') (A") (A') (A")
                 (A') (A") (A") (A") (A') (A') (A") (A') (A") (A')
                 (A') (A") (A') (A") (A') (A") (A') (A') (A') (A")
                 (A') (A') (A") (A") (A') (A') (A') (A") (A') (A')
                 (A") (A') (A") (A') (A') (A") (A') (A') (A") (A')
                 (A") (A') (A") (A') (A') (A') (A") (A') (A') (A')
                 (A") (A') (A") (A") (A') (A") (A") (A') (A') (A")
                 (A') (A') (A") (A') (A") (A') (A") (A') (A") (A')
                 (A') (A") (A') (A") (A') (A') (A') (A') (A") (A')
                 (A') (A") (A') (A") (A') (A") (A') (A') (A") (A')
                 (A') (A") (A") (A") (A") (A') (A') (A') (A") (A")
                 (A") (A') (A') (A") (A') (A") (A') (A") (A") (A')
                 (A') (A") (A') (A') (A') (A") (A') (A") (A") (A')
                 (A") (A') (A') (A') (A") (A") (A') (A") (A") (A")
                 (A') (A') (A') (A") (A") (A') (A") (A') (A') (A")
                 (A") (A') (A') (A') (A') (A") (A") (A') (A') (A')
                 (A") (A") (A') (A') (A") (A') (A') (A') (A") (A")
                 (A') (A') (A") (A') (A") (A") (A') (A') (A") (A')
                 (A") (A') (A') (A") (A') (A') (A") (A') (A") (A')
                 (A') (A") (A") (A') (A") (A') (A') (A") (A") (A')
                 (A') (A') (A") (A') (A') (A') (A') (A') (A") (A")
                 (A') (A") (A') (A") (A') (A") (A") (A') (A') (A")
                 (A') (A") (A') (A') (A') (A') (A') (A") (A") (A')
                 (A") (A') (A") (A') (A") (A") (A') (A") (A') (A")
                 (A") (A') (A") (A') (A") (A") (A') (A') (A') (A')
                 (A") (A') (A") (A') (A') (A') (A') (A') (A") (A')
                 (A") (A') (A') (A") (A") (A') (A") (A') (A") (A')
                 (A") (A") (A") (A') (A') (A") (A') (A') (A") (A')
                 (A') (A") (A') (A') (A') (A") (A') (A") (A') (A')
                 (A') (A') (A') (A') (A')
 The electronic state is 1-A'.
 Alpha  occ. eigenvalues --  -20.61618 -20.54783 -15.55634 -11.38417 -11.28899
 Alpha  occ. eigenvalues --   -1.46706  -1.37161  -1.20566  -0.97529  -0.83423
 Alpha  occ. eigenvalues --   -0.73843  -0.70516  -0.67181  -0.63114  -0.60719
 Alpha  occ. eigenvalues --   -0.58967  -0.54713  -0.48765  -0.46907  -0.41611
 Alpha virt. eigenvalues --    0.09241   0.12097   0.13906   0.16569   0.17215
 Alpha virt. eigenvalues --    0.21208   0.23205   0.27907   0.28226   0.33990
 Alpha virt. eigenvalues --    0.34421   0.37132   0.38221   0.40274   0.40626
 Alpha virt. eigenvalues --    0.42772   0.44455   0.46556   0.48939   0.51086
 Alpha virt. eigenvalues --    0.51695   0.53795   0.54918   0.54966   0.57465
 Alpha virt. eigenvalues --    0.57798   0.61919   0.62204   0.66006   0.66570
 Alpha virt. eigenvalues --    0.67691   0.73118   0.75882   0.76862   0.78813
 Alpha virt. eigenvalues --    0.82326   0.83958   0.84728   0.84978   0.89447
 Alpha virt. eigenvalues --    0.91456   0.96022   0.96137   0.98482   1.00033
 Alpha virt. eigenvalues --    1.03044   1.04397   1.05670   1.07550   1.07600
 Alpha virt. eigenvalues --    1.11691   1.14013   1.14985   1.16136   1.19073
 Alpha virt. eigenvalues --    1.20541   1.22225   1.25277   1.31161   1.31182
 Alpha virt. eigenvalues --    1.35632   1.38218   1.42941   1.43276   1.46407
 Alpha virt. eigenvalues --    1.47672   1.51123   1.53205   1.59078   1.60818
 Alpha virt. eigenvalues --    1.62469   1.65935   1.68668   1.70452   1.70992
 Alpha virt. eigenvalues --    1.72012   1.79753   1.80478   1.85739   1.87626
 Alpha virt. eigenvalues --    1.89212   1.90043   1.95485   1.99271   2.01379
 Alpha virt. eigenvalues --    2.01989   2.05673   2.06454   2.10348   2.11954
 Alpha virt. eigenvalues --    2.12412   2.14354   2.15235   2.20033   2.22321
 Alpha virt. eigenvalues --    2.29721   2.32268   2.34009   2.35593   2.36060
 Alpha virt. eigenvalues --    2.38136   2.43106   2.43399   2.43847   2.46115
 Alpha virt. eigenvalues --    2.46718   2.49009   2.50654   2.51446   2.54104
 Alpha virt. eigenvalues --    2.54177   2.57163   2.59125   2.62512   2.63873
 Alpha virt. eigenvalues --    2.67392   2.71239   2.71334   2.73539   2.75548
 Alpha virt. eigenvalues --    2.75875   2.78521   2.80367   2.84689   2.85240
 Alpha virt. eigenvalues --    2.91004   2.91067   2.96118   2.97681   2.98202
 Alpha virt. eigenvalues --    3.00933   3.02675   3.09913   3.12892   3.13539
 Alpha virt. eigenvalues --    3.15356   3.16032   3.20169   3.26412   3.27628
 Alpha virt. eigenvalues --    3.28896   3.36447   3.36984   3.39784   3.41524
 Alpha virt. eigenvalues --    3.44636   3.48434   3.49525   3.53384   3.55124
 Alpha virt. eigenvalues --    3.55676   3.60707   3.64321   3.65544   3.68585
 Alpha virt. eigenvalues --    3.70409   3.74338   3.77539   3.80714   3.83721
 Alpha virt. eigenvalues --    3.89558   3.89863   3.89990   3.95345   4.00510
 Alpha virt. eigenvalues --    4.06337   4.07921   4.11810   4.12926   4.15765
 Alpha virt. eigenvalues --    4.16842   4.20655   4.20661   4.30421   4.33159
 Alpha virt. eigenvalues --    4.35047   4.38116   4.39980   4.46243   4.51418
 Alpha virt. eigenvalues --    4.51587   4.54051   4.56475   4.59435   4.60697
 Alpha virt. eigenvalues --    4.65869   4.71936   4.73702   4.78247   4.78282
 Alpha virt. eigenvalues --    4.80257   4.85722   4.86881   4.99620   5.00373
 Alpha virt. eigenvalues --    5.16297   5.18600   5.25889   5.38679   5.41514
 Alpha virt. eigenvalues --    5.51983   5.67118   5.71687   5.74675   5.75160
 Alpha virt. eigenvalues --    5.87308   5.87345   5.89848   5.92420   5.94037
 Alpha virt. eigenvalues --    5.96765   5.97393   6.00247   6.06530   6.09588
 Alpha virt. eigenvalues --    6.10559   6.13479   6.15394   6.19061   6.23382
 Alpha virt. eigenvalues --    6.32997   6.33082   6.34084   6.37904   6.41798
 Alpha virt. eigenvalues --    6.46452   6.47420   6.49215   6.51020   6.51808
 Alpha virt. eigenvalues --    6.53429   6.57106   6.59951   6.60624   6.68452
 Alpha virt. eigenvalues --    6.68769   6.76271   6.76532   6.84955   6.86891
 Alpha virt. eigenvalues --    6.88809   6.90353   6.99602   7.01003   7.03673
 Alpha virt. eigenvalues --    7.10345   7.15231   7.15631   7.19187   7.21598
 Alpha virt. eigenvalues --    7.22101   7.26176   7.31450   7.33956   7.38835
 Alpha virt. eigenvalues --    7.40921   7.41467   7.43605   7.45602   7.47836
 Alpha virt. eigenvalues --    7.50597   7.54407   7.55414   7.60693   7.65151
 Alpha virt. eigenvalues --    7.74028   7.75530   7.76212   7.81008   7.83890
 Alpha virt. eigenvalues --    7.89229   7.93399   7.96182   7.99019   8.03163
 Alpha virt. eigenvalues --    8.04149   8.05555   8.08304   8.08455   8.11024
 Alpha virt. eigenvalues --    8.14278   8.16919   8.22443   8.24696   8.27185
 Alpha virt. eigenvalues --    8.28930   8.29558   8.35365   8.38248   8.40990
 Alpha virt. eigenvalues --    8.46165   8.46995   8.50423   8.54718   8.56185
 Alpha virt. eigenvalues --    8.57660   8.66459   8.66627   8.66897   8.68654
 Alpha virt. eigenvalues --    8.76477   8.79946   8.85617   8.85843   8.87479
 Alpha virt. eigenvalues --    8.89807   8.94854   8.95481   8.99180   9.01219
 Alpha virt. eigenvalues --    9.03280   9.05363   9.08229   9.14950   9.20794
 Alpha virt. eigenvalues --    9.21912   9.23739   9.28184   9.28768   9.29576
 Alpha virt. eigenvalues --    9.38439   9.38696   9.46288   9.52929   9.56837
 Alpha virt. eigenvalues --    9.63297   9.66739   9.66758   9.69830   9.73636
 Alpha virt. eigenvalues --    9.81969   9.86434   9.90850  10.14732  10.19660
 Alpha virt. eigenvalues --   10.23123  10.29379  10.30469  10.31091  10.35264
 Alpha virt. eigenvalues --   10.35269  10.41799  10.46752  10.51369  10.51529
 Alpha virt. eigenvalues --   10.56226  10.58447  10.66752  10.69441  10.73300
 Alpha virt. eigenvalues --   10.80231  10.86368  10.91799  10.93488  10.98820
 Alpha virt. eigenvalues --   11.01046  11.08625  11.15800  11.24552  11.32541
 Alpha virt. eigenvalues --   11.45105  11.48110  11.61901  11.63700  11.64977
 Alpha virt. eigenvalues --   11.68516  11.88946  11.93354  11.93607  11.97125
 Alpha virt. eigenvalues --   12.04280  12.12361  12.15412  12.17354  12.27051
 Alpha virt. eigenvalues --   12.29516  12.31358  12.36394  12.42615  12.44515
 Alpha virt. eigenvalues --   12.45977  12.70874  12.80283  12.80760  12.86242
 Alpha virt. eigenvalues --   12.86976  12.95043  13.01877  13.15463  13.50129
 Alpha virt. eigenvalues --   13.58391  13.95064  14.09855  14.31266  14.40128
 Alpha virt. eigenvalues --   14.40659  14.58086  14.67785  14.80155  16.72268
 Alpha virt. eigenvalues --   24.84061  26.65012  34.86045  43.07490  44.20085
          Condensed to atoms (all electrons):
               1          2          3          4          5          6
     1  C    4.194287   0.386636   0.742457  -0.049324   0.329391  -0.105574
     2  O    0.386636   7.855741  -0.080362   0.320158  -0.112601   0.013376
     3  O    0.742457  -0.080362   7.855077   0.006480  -0.103155   0.009221
     4  H   -0.049324   0.320158   0.006480   0.461340   0.001291   0.000083
     5  C    0.329391  -0.112601  -0.103155   0.001291   4.960486   0.325067
     6  N   -0.105574   0.013376   0.009221   0.000083   0.325067   6.361508
     7  H   -0.027603   0.003654   0.000745  -0.000520   0.394159  -0.019503
     8  H   -0.027603   0.003654   0.000745  -0.000520   0.394159  -0.019503
     9  H   -0.003298   0.000250   0.003125  -0.000062  -0.035314   0.407057
    10  H   -0.003298   0.000250   0.003125  -0.000062  -0.035314   0.407057
               7          8          9         10
     1  C   -0.027603  -0.027603  -0.003298  -0.003298
     2  O    0.003654   0.003654   0.000250   0.000250
     3  O    0.000745   0.000745   0.003125   0.003125
     4  H   -0.000520  -0.000520  -0.000062  -0.000062
     5  C    0.394159   0.394159  -0.035314  -0.035314
     6  N   -0.019503  -0.019503   0.407057   0.407057
     7  H    0.592425  -0.038171  -0.008800   0.007580
     8  H   -0.038171   0.592425   0.007580  -0.008800
     9  H   -0.008800   0.007580   0.506515  -0.031074
    10  H    0.007580  -0.008800  -0.031074   0.506515
 Mulliken charges:
               1
     1  C    0.563929
     2  O   -0.390757
     3  O   -0.437456
     4  H    0.261136
     5  C   -0.118169
     6  N   -0.378790
     7  H    0.096034
     8  H    0.096034
     9  H    0.154020
    10  H    0.154020
 Sum of Mulliken charges =  -0.00000
 Mulliken charges with hydrogens summed into heavy atoms:
               1
     1  C    0.563929
     2  O   -0.129621
     3  O   -0.437456
     5  C    0.073900
     6  N   -0.070751
 Electronic spatial extent (au):  <R**2>=            419.8150
 Charge=             -0.0000 electrons
 Dipole moment (field-independent basis, Debye):
    X=              3.0218    Y=             -1.5844    Z=             -0.0000  Tot=              3.4120
 Quadrupole moment (field-independent basis, Debye-Ang):
   XX=            -26.5213   YY=            -38.7947   ZZ=            -27.1631
   XY=              3.9788   XZ=             -0.0000   YZ=              0.0000
 Traceless Quadrupole moment (field-independent basis, Debye-Ang):
   XX=              4.3051   YY=             -7.9683   ZZ=              3.6632
   XY=              3.9788   XZ=             -0.0000   YZ=              0.0000
 Octapole moment (field-independent basis, Debye-Ang**2):
  XXX=             12.2745  YYY=             14.3054  ZZZ=             -0.0000  XYY=             -2.1001
  XXY=             -1.6588  XXZ=              0.0000  XZZ=             -1.3501  YZZ=             -1.8552
  YYZ=             -0.0000  XYZ=              0.0000
 Hexadecapole moment (field-independent basis, Debye-Ang**3):
 XXXX=           -126.6859 YYYY=           -388.2611 ZZZZ=            -34.0079 XXXY=             -1.8495
 XXXZ=              0.0000 YYYX=            -19.5556 YYYZ=              0.0000 ZZZX=             -0.0000
 ZZZY=             -0.0000 XXYY=            -70.4944 XXZZ=            -27.5513 YYZZ=            -54.6809
 XXYZ=             -0.0000 YYXZ=             -0.0000 ZZXY=             -4.8621
 N-N= 1.796626220275D+02 E-N=-1.025692768451D+03  KE= 2.826678788858D+02
 Symmetry A'   KE= 2.698657903839D+02
 Symmetry A"   KE= 1.280208850192D+01
 Leave Link  601 at Fri Jan 15 14:10:59 2021, MaxMem= 13421772800 cpu:              59.6 elap:               3.8
 (Enter /data2/software/Gaussian/g16_c01-gpu/g16/l9999.exe)
 Unable to Open any file for archive entry.
 1\1\GINC-CU05\SP\RMP2-FC\CC-pVQZ\C2H5N1O2\SHUCHONG\15-Jan-2021\0\\#p M
 P2 cc-pVQZ\\start best geom PCCP paper\\0,1\C\O,1,1.35431\O,1,1.19608,
 2,120.26189\H,2,0.961906,1,110.63119,3,180.,0\C,1,1.52269,3,124.62553,
 2,180.,0\N,5,1.44073,1,115.35662,3,0.,0\H,5,1.09261,1,107.80356,3,-122
 .62433,0\H,5,1.09261,1,107.80356,3,122.62433,0\H,6,1.01113,5,110.22995
 ,1,-58.35404,0\H,6,1.01113,5,110.22995,1,58.35404,0\\Version=AM64L-G16
 RevC.01\State=1-A'\HF=-282.9605564\MP2=-284.0438226\RMSD=9.830e-09\PG=
 CS [SG(C2H1N1O2),X(H4)]\\@
 The archive entry for this job was punched.


 MOST BUREAUCRACIES FUNCTION LIKE A SEPTIC TANK.
 THE LARGE CHUNKS RISE TO THE TOP.
 Job cpu time:       0 days  1 hours 18 minutes 22.3 seconds.
 Elapsed time:       0 days  0 hours  5 minutes 13.9 seconds.
 File lengths (MBytes):  RWF=     74 Int=      0 D2E=      0 Chk=     13 Scr=      1
 Normal termination of Gaussian 16 at Fri Jan 15 14:11:00 2021.
