 Entering Gaussian System, Link 0=g16
 Input=VII_tcc_Best_geom_MP2_cc_pVQZ.gjf
 Output=VII_tcc_Best_geom_MP2_cc_pVQZ.log
 Initial command:
 /data2/software/Gaussian/g16_from_xuruiqin/g16/l1.exe "/home/shuchong/scratch/Gau-18486.inp" -scrdir="/home/shuchong/scratch/"
 Entering Link 1 = /data2/software/Gaussian/g16_from_xuruiqin/g16/l1.exe PID=     18488.
  
 Copyright (c) 1988-2019, Gaussian, Inc.  All Rights Reserved.
  
 This is part of the Gaussian(R) 16 program.  It is based on
 the Gaussian(R) 09 system (copyright 2009, Gaussian, Inc.),
 the Gaussian(R) 03 system (copyright 2003, Gaussian, Inc.),
 the Gaussian(R) 98 system (copyright 1998, Gaussian, Inc.),
 the Gaussian(R) 94 system (copyright 1995, Gaussian, Inc.),
 the Gaussian 92(TM) system (copyright 1992, Gaussian, Inc.),
 the Gaussian 90(TM) system (copyright 1990, Gaussian, Inc.),
 the Gaussian 88(TM) system (copyright 1988, Gaussian, Inc.),
 the Gaussian 86(TM) system (copyright 1986, Carnegie Mellon
 University), and the Gaussian 82(TM) system (copyright 1983,
 Carnegie Mellon University). Gaussian is a federally registered
 trademark of Gaussian, Inc.
  
 This software contains proprietary and confidential information,
 including trade secrets, belonging to Gaussian, Inc.
  
 This software is provided under written license and may be
 used, copied, transmitted, or stored only in accord with that
 written license.
  
 The following legend is applicable only to US Government
 contracts under FAR:
  
                    RESTRICTED RIGHTS LEGEND
  
 Use, reproduction and disclosure by the US Government is
 subject to restrictions as set forth in subparagraphs (a)
 and (c) of the Commercial Computer Software - Restricted
 Rights clause in FAR 52.227-19.
  
 Gaussian, Inc.
 340 Quinnipiac St., Bldg. 40, Wallingford CT 06492
  
  
 ---------------------------------------------------------------
 Warning -- This program may not be used in any manner that
 competes with the business of Gaussian, Inc. or will provide
 assistance to any competitor of Gaussian, Inc.  The licensee
 of this program is prohibited from giving any competitor of
 Gaussian, Inc. access to this program.  By using this program,
 the user acknowledges that Gaussian, Inc. is engaged in the
 business of creating and licensing software in the field of
 computational chemistry and represents and warrants to the
 licensee that it is not a competitor of Gaussian, Inc. and that
 it will not use this program in any manner prohibited above.
 ---------------------------------------------------------------
  

 Cite this work as:
 Gaussian 16, Revision C.01,
 M. J. Frisch, G. W. Trucks, H. B. Schlegel, G. E. Scuseria, 
 M. A. Robb, J. R. Cheeseman, G. Scalmani, V. Barone, 
 G. A. Petersson, H. Nakatsuji, X. Li, M. Caricato, A. V. Marenich, 
 J. Bloino, B. G. Janesko, R. Gomperts, B. Mennucci, H. P. Hratchian, 
 J. V. Ortiz, A. F. Izmaylov, J. L. Sonnenberg, D. Williams-Young, 
 F. Ding, F. Lipparini, F. Egidi, J. Goings, B. Peng, A. Petrone, 
 T. Henderson, D. Ranasinghe, V. G. Zakrzewski, J. Gao, N. Rega, 
 G. Zheng, W. Liang, M. Hada, M. Ehara, K. Toyota, R. Fukuda, 
 J. Hasegawa, M. Ishida, T. Nakajima, Y. Honda, O. Kitao, H. Nakai, 
 T. Vreven, K. Throssell, J. A. Montgomery, Jr., J. E. Peralta, 
 F. Ogliaro, M. J. Bearpark, J. J. Heyd, E. N. Brothers, K. N. Kudin, 
 V. N. Staroverov, T. A. Keith, R. Kobayashi, J. Normand, 
 K. Raghavachari, A. P. Rendell, J. C. Burant, S. S. Iyengar, 
 J. Tomasi, M. Cossi, J. M. Millam, M. Klene, C. Adamo, R. Cammi, 
 J. W. Ochterski, R. L. Martin, K. Morokuma, O. Farkas, 
 J. B. Foresman, and D. J. Fox, Gaussian, Inc., Wallingford CT, 2019.
 
 ******************************************
 Gaussian 16:  ES64L-G16RevC.01  3-Jul-2019
                15-Jan-2021 
 ******************************************
 %chk=VII_tcc_Best_geom_MP2_cc_pVQZ.chk
 %nprocshared=28
 Will use up to   28 processors via shared memory.
 %mem=100GB
 --------------
 #p MP2 cc-pVQZ
 --------------
 1/38=1,172=1/1;
 2/12=2,17=6,18=5,40=1/2;
 3/5=16,6=2,11=9,25=1,30=1/1,2,3;
 4//1;
 5/5=2,38=5/2;
 8/10=1/1;
 9/16=-3/6;
 6/7=2,8=2,9=2,10=2/1;
 99/5=1,9=1/99;
 Leave Link    1 at Fri Jan 15 18:05:00 2021, MaxMem= 13421772800 cpu:               4.9 elap:               0.2
 (Enter /data2/software/Gaussian/g16_from_xuruiqin/g16/l101.exe)
 ------
 VII_SP
 ------
 Symbolic Z-matrix:
 Charge =  0 Multiplicity = 1
 C
 O                    1    B1
 O                    1    B2       2    A1
 H                    2    B3       1    A2       3    D1       0
 C                    1    B4       3    A3       2    D2       0
 N                    5    B5       1    A4       3    D3       0
 H                    5    B6       1    A5       3    D4       0
 H                    5    B7       1    A6       3    D5       0
 H                    6    B8       5    A7       1    D6       0
 H                    6    B9       5    A8       1    D7       0
       Variables:
  B1                    1.34574                  
  B2                    1.19815                  
  B3                    0.96472                  
  B4                    1.52715                  
  B5                    1.44048                  
  B6                    1.08922                  
  B7                    1.08922                  
  B8                    1.00566                  
  B9                    1.00566                  
  A1                  121.2126                   
  A2                  108.75236                  
  A3                  122.19982                  
  A4                  118.81834                  
  A5                  105.99599                  
  A6                  105.99599                  
  A7                  116.68391                  
  A8                  116.68391                  
  D1                  180.                       
  D2                  180.                       
  D3                  180.                       
  D4                   56.33574                  
  D5                  -56.33574                  
  D6                  -68.87807                  
  D7                   68.87807                  
 
 ITRead=  0  0  0  0  0  0  0  0  0  0
 MicOpt= -1 -1 -1 -1 -1 -1 -1 -1 -1 -1
 NAtoms=     10 NQM=       10 NQMF=       0 NMMI=      0 NMMIF=      0
                NMic=       0 NMicF=      0.
                    Isotopes and Nuclear Properties:
 (Nuclear quadrupole moments (NQMom) in fm**2, nuclear magnetic moments (NMagM)
  in nuclear magnetons)

  Atom         1           2           3           4           5           6           7           8           9          10
 IAtWgt=          12          16          16           1          12          14           1           1           1           1
 AtmWgt=  12.0000000  15.9949146  15.9949146   1.0078250  12.0000000  14.0030740   1.0078250   1.0078250   1.0078250   1.0078250
 NucSpn=           0           0           0           1           0           2           1           1           1           1
 AtZEff=  -0.0000000  -0.0000000  -0.0000000  -0.0000000  -0.0000000  -0.0000000  -0.0000000  -0.0000000  -0.0000000  -0.0000000
 NQMom=    0.0000000   0.0000000   0.0000000   0.0000000   0.0000000   2.0440000   0.0000000   0.0000000   0.0000000   0.0000000
 NMagM=    0.0000000   0.0000000   0.0000000   2.7928460   0.0000000   0.4037610   2.7928460   2.7928460   2.7928460   2.7928460
 AtZNuc=   6.0000000   8.0000000   8.0000000   1.0000000   6.0000000   7.0000000   1.0000000   1.0000000   1.0000000   1.0000000
 Leave Link  101 at Fri Jan 15 18:05:01 2021, MaxMem= 13421772800 cpu:               2.2 elap:               0.1
 (Enter /data2/software/Gaussian/g16_from_xuruiqin/g16/l202.exe)
                          Input orientation:                          
 ---------------------------------------------------------------------
 Center     Atomic      Atomic             Coordinates (Angstroms)
 Number     Number       Type             X           Y           Z
 ---------------------------------------------------------------------
      1          6           0        0.000000    0.000000    0.000000
      2          8           0        0.000000    0.000000    1.345736
      3          8           0        1.024715    0.000000   -0.620898
      4          1           0       -0.913510    0.000000    1.655872
      5          6           0       -1.365657    0.000000   -0.683500
      6          7           0       -2.551449    0.000000    0.134343
      7          1           0       -1.374303   -0.871458   -1.336868
      8          1           0       -1.374303    0.871458   -1.336868
      9          1           0       -2.739373   -0.838184    0.657296
     10          1           0       -2.739373    0.838184    0.657296
 ---------------------------------------------------------------------
                    Distance matrix (angstroms):
                    1          2          3          4          5
     1  C    0.000000
     2  O    1.345736   0.000000
     3  O    1.198147   2.217586   0.000000
     4  H    1.891141   0.964720   2.990050   0.000000
     5  C    1.527151   2.445979   2.391192   2.382666   0.000000
     6  N    2.554984   2.824423   3.655043   2.235598   1.440476
     7  H    2.106031   3.137596   2.650914   3.150915   1.089222
     8  H    2.106031   3.137596   2.650914   3.150915   1.089222
     9  H    2.939176   2.946297   4.062597   2.243543   2.094608
    10  H    2.939176   2.946297   4.062597   2.243543   2.094608
                    6          7          8          9         10
     6  N    0.000000
     7  H    2.075951   0.000000
     8  H    2.075951   1.742917   0.000000
     9  H    1.005658   2.416860   2.960234   0.000000
    10  H    1.005658   2.960234   2.416860   1.676369   0.000000
 Stoichiometry    C2H5NO2
 Framework group  CS[SG(C2HNO2),X(H4)]
 Deg. of freedom    15
 Full point group                 CS      NOp   2
 Largest Abelian subgroup         CS      NOp   2
 Largest concise Abelian subgroup CS      NOp   2
                         Standard orientation:                         
 ---------------------------------------------------------------------
 Center     Atomic      Atomic             Coordinates (Angstroms)
 Number     Number       Type             X           Y           Z
 ---------------------------------------------------------------------
      1          6           0        0.000000    0.678907    0.000000
      2          8           0       -1.337854    0.533471    0.000000
      3          8           0        0.506518    1.764722    0.000000
      4          1           0       -1.547449   -0.408206   -0.000000
      5          6           0        0.827086   -0.604884   -0.000000
      6          7           0        0.142184   -1.872117   -0.000000
      7          1           0        1.477562   -0.542869    0.871458
      8          1           0        1.477562   -0.542869   -0.871458
      9          1           0       -0.357397   -2.115457    0.838184
     10          1           0       -0.357397   -2.115457   -0.838184
 ---------------------------------------------------------------------
 Rotational constants (GHZ):           9.9652158           4.0049802           2.9552908
 Leave Link  202 at Fri Jan 15 18:05:01 2021, MaxMem= 13421772800 cpu:               0.2 elap:               0.0
 (Enter /data2/software/Gaussian/g16_from_xuruiqin/g16/l301.exe)
 Standard basis: CC-pVQZ (5D, 7F)
 Ernie: Thresh=  0.10000D-02 Tol=  0.10000D-05 Strict=F.
 Ernie:  15 primitive shells out of 225 were deleted.
 There are   324 symmetry adapted cartesian basis functions of A'  symmetry.
 There are   201 symmetry adapted cartesian basis functions of A"  symmetry.
 There are   255 symmetry adapted basis functions of A'  symmetry.
 There are   170 symmetry adapted basis functions of A"  symmetry.
   425 basis functions,   630 primitive gaussians,   525 cartesian basis functions
    20 alpha electrons       20 beta electrons
       nuclear repulsion energy       180.0741256900 Hartrees.
 IExCor=    0 DFT=F Ex=HF Corr=None ExCW=0 ScaHFX=  1.000000
 ScaDFX=  1.000000  1.000000  1.000000  1.000000 ScalE2=  1.000000  1.000000
 IRadAn=      5 IRanWt=     -1 IRanGd=            0 ICorTp=0 IEmpDi=  4
 NAtoms=   10 NActive=   10 NUniq=    8 SFac= 1.56D+00 NAtFMM=   60 NAOKFM=F Big=F
 Integral buffers will be    131072 words long.
 Raffenetti 1 integral format.
 Two-electron integral symmetry is turned on.
 Leave Link  301 at Fri Jan 15 18:05:01 2021, MaxMem= 13421772800 cpu:               1.1 elap:               0.1
 (Enter /data2/software/Gaussian/g16_from_xuruiqin/g16/l302.exe)
 NPDir=0 NMtPBC=     1 NCelOv=     1 NCel=       1 NClECP=     1 NCelD=      1
         NCelK=      1 NCelE2=     1 NClLst=     1 CellRange=     0.0.
 One-electron integrals computed using PRISM.
 One-electron integral symmetry used in STVInt
 NBasis=   425 RedAO= T EigKep=  7.41D-05  NBF=   255   170
 NBsUse=   425 1.00D-06 EigRej= -1.00D+00 NBFU=   255   170
 Leave Link  302 at Fri Jan 15 18:05:02 2021, MaxMem= 13421772800 cpu:              31.9 elap:               1.2
 (Enter /data2/software/Gaussian/g16_from_xuruiqin/g16/l303.exe)
 DipDrv:  MaxL=1.
 Leave Link  303 at Fri Jan 15 18:05:02 2021, MaxMem= 13421772800 cpu:               1.5 elap:               0.1
 (Enter /data2/software/Gaussian/g16_from_xuruiqin/g16/l401.exe)
 ExpMin= 8.99D-02 ExpMax= 6.14D+04 ExpMxC= 5.91D+02 IAcc=3 IRadAn=         5 AccDes= 0.00D+00
 Harris functional with IExCor=  205 and IRadAn=       5 diagonalized for initial guess.
 HarFok:  IExCor=  205 AccDes= 0.00D+00 IRadAn=         5 IDoV= 1 UseB2=F ITyADJ=14
 ICtDFT=  3500011 ScaDFX=  1.000000  1.000000  1.000000  1.000000
 FoFCou: FMM=F IPFlag=           0 FMFlag=      100000 FMFlg1=           0
         NFxFlg=           0 DoJE=T BraDBF=F KetDBF=T FulRan=T
         wScrn=  0.000000 ICntrl=       500 IOpCl=  0 I1Cent=   200000004 NGrid=           0
         NMat0=    1 NMatS0=      1 NMatT0=    0 NMatD0=    1 NMtDS0=    0 NMtDT0=    0
 Petite list used in FoFCou.
 Harris En= -283.248854513135    
 JPrj=0 DoOrth=F DoCkMO=F.
 Initial guess orbital symmetries:
       Occupied  (A') (A') (A') (A') (A') (A') (A') (A') (A') (A')
                 (A') (A") (A') (A') (A") (A') (A") (A") (A') (A')
       Virtual   (A") (A') (A') (A") (A') (A') (A") (A') (A') (A')
                 (A") (A') (A") (A') (A') (A') (A') (A") (A') (A")
                 (A') (A') (A") (A') (A") (A') (A') (A') (A") (A")
                 (A') (A') (A') (A') (A") (A') (A") (A') (A") (A')
                 (A") (A') (A") (A') (A") (A') (A") (A') (A') (A")
                 (A') (A') (A') (A") (A") (A') (A') (A') (A') (A")
                 (A") (A') (A') (A') (A") (A') (A') (A") (A') (A")
                 (A') (A') (A') (A") (A') (A") (A") (A') (A') (A')
                 (A') (A") (A") (A') (A') (A") (A') (A') (A") (A")
                 (A') (A") (A') (A') (A") (A") (A') (A") (A') (A')
                 (A') (A") (A') (A") (A") (A') (A") (A") (A') (A")
                 (A') (A') (A") (A') (A') (A") (A') (A") (A') (A')
                 (A') (A") (A') (A") (A') (A') (A") (A") (A") (A')
                 (A') (A') (A") (A') (A") (A") (A') (A') (A") (A')
                 (A') (A') (A") (A') (A") (A') (A") (A') (A') (A")
                 (A') (A') (A") (A') (A') (A") (A') (A') (A") (A')
                 (A") (A') (A") (A') (A') (A') (A") (A') (A') (A")
                 (A') (A') (A") (A") (A") (A') (A') (A') (A') (A")
                 (A") (A') (A") (A') (A") (A') (A') (A") (A') (A")
                 (A') (A') (A") (A') (A") (A') (A') (A') (A') (A")
                 (A') (A') (A") (A") (A') (A") (A') (A') (A") (A')
                 (A") (A") (A') (A') (A") (A") (A') (A") (A') (A')
                 (A") (A') (A") (A') (A") (A') (A") (A') (A") (A")
                 (A') (A') (A") (A') (A") (A') (A") (A") (A') (A')
                 (A') (A") (A') (A') (A") (A') (A") (A") (A') (A')
                 (A") (A") (A') (A") (A') (A') (A") (A') (A") (A')
                 (A") (A') (A") (A') (A") (A') (A") (A') (A') (A")
                 (A') (A") (A') (A') (A') (A') (A") (A') (A") (A')
                 (A") (A') (A') (A") (A") (A') (A") (A') (A") (A')
                 (A") (A') (A') (A') (A') (A") (A") (A') (A") (A')
                 (A') (A") (A') (A') (A") (A") (A') (A') (A") (A')
                 (A") (A') (A') (A') (A') (A") (A") (A') (A") (A')
                 (A") (A') (A') (A") (A') (A") (A") (A') (A") (A')
                 (A') (A') (A") (A') (A") (A') (A') (A") (A') (A')
                 (A") (A") (A") (A') (A') (A") (A') (A") (A") (A')
                 (A") (A') (A") (A') (A") (A') (A') (A") (A') (A')
                 (A') (A") (A') (A") (A') (A') (A") (A') (A") (A')
                 (A') (A') (A') (A") (A') (A") (A") (A") (A") (A')
                 (A') (A") (A') (A') (A") (A') (A") (A') (A") (A')
                 (A') (A") (A') (A') (A') (A") (A') (A') (A") (A')
                 (A') (A') (A') (A') (A')
 The electronic state of the initial guess is 1-A'.
 Leave Link  401 at Fri Jan 15 18:05:04 2021, MaxMem= 13421772800 cpu:              57.2 elap:               2.1
 (Enter /data2/software/Gaussian/g16_from_xuruiqin/g16/l502.exe)
 Keep R1 ints in memory in symmetry-blocked form, NReq=6150019474.
 FoFCou: FMM=F IPFlag=           0 FMFlag=           0 FMFlg1=           0
         NFxFlg=           0 DoJE=F BraDBF=F KetDBF=F FulRan=T
         wScrn=  0.000000 ICntrl=       600 IOpCl=  0 I1Cent=           0 NGrid=           0
         NMat0=    1 NMatS0=  90525 NMatT0=    0 NMatD0=    1 NMtDS0=    0 NMtDT0=    0
 Petite list used in FoFCou.
 Closed shell SCF:
 Using DIIS extrapolation, IDIIS=  1040.
 NGot= 13421772800 LenX= 11368618685 LenY= 11368342535
 Requested convergence on RMS density matrix=1.00D-08 within 128 cycles.
 Requested convergence on MAX density matrix=1.00D-06.
 Requested convergence on             energy=1.00D-06.
 No special actions if energy rises.

 Cycle   1  Pass 1  IDiag  1:
 E= -282.710964492637    
 DIIS: error= 2.97D-02 at cycle   1 NSaved=   1.
 NSaved= 1 IEnMin= 1 EnMin= -282.710964492637     IErMin= 1 ErrMin= 2.97D-02
 ErrMax= 2.97D-02  0.00D+00 EMaxC= 1.00D-01 BMatC= 6.58D-01 BMatP= 6.58D-01
 IDIUse=3 WtCom= 7.03D-01 WtEn= 2.97D-01
 Coeff-Com:  0.100D+01
 Coeff-En:   0.100D+01
 Coeff:      0.100D+01
 Gap=     0.427 Goal=   None    Shift=    0.000
 GapD=    0.427 DampG=2.000 DampE=0.500 DampFc=1.0000 IDamp=-1.
 RMSDP=1.36D-03 MaxDP=1.34D-01              OVMax= 1.33D-01

 Cycle   2  Pass 1  IDiag  1:
 E= -282.900236365672     Delta-E=       -0.189271873035 Rises=F Damp=F
 DIIS: error= 1.48D-02 at cycle   2 NSaved=   2.
 NSaved= 2 IEnMin= 2 EnMin= -282.900236365672     IErMin= 2 ErrMin= 1.48D-02
 ErrMax= 1.48D-02  0.00D+00 EMaxC= 1.00D-01 BMatC= 8.63D-02 BMatP= 6.58D-01
 IDIUse=3 WtCom= 8.52D-01 WtEn= 1.48D-01
 Coeff-Com:  0.195D+00 0.805D+00
 Coeff-En:   0.000D+00 0.100D+01
 Coeff:      0.166D+00 0.834D+00
 Gap=     0.531 Goal=   None    Shift=    0.000
 RMSDP=8.16D-04 MaxDP=1.00D-01 DE=-1.89D-01 OVMax= 5.80D-02

 Cycle   3  Pass 1  IDiag  1:
 E= -282.948791967948     Delta-E=       -0.048555602276 Rises=F Damp=F
 DIIS: error= 8.45D-03 at cycle   3 NSaved=   3.
 NSaved= 3 IEnMin= 3 EnMin= -282.948791967948     IErMin= 3 ErrMin= 8.45D-03
 ErrMax= 8.45D-03  0.00D+00 EMaxC= 1.00D-01 BMatC= 1.34D-02 BMatP= 8.63D-02
 IDIUse=3 WtCom= 9.16D-01 WtEn= 8.45D-02
 Coeff-Com: -0.216D-01 0.257D+00 0.765D+00
 Coeff-En:   0.000D+00 0.000D+00 0.100D+01
 Coeff:     -0.197D-01 0.235D+00 0.785D+00
 Gap=     0.498 Goal=   None    Shift=    0.000
 RMSDP=1.23D-04 MaxDP=6.74D-03 DE=-4.86D-02 OVMax= 2.96D-02

 Cycle   4  Pass 1  IDiag  1:
 E= -282.957017024023     Delta-E=       -0.008225056076 Rises=F Damp=F
 DIIS: error= 1.33D-03 at cycle   4 NSaved=   4.
 NSaved= 4 IEnMin= 4 EnMin= -282.957017024023     IErMin= 4 ErrMin= 1.33D-03
 ErrMax= 1.33D-03  0.00D+00 EMaxC= 1.00D-01 BMatC= 4.94D-04 BMatP= 1.34D-02
 IDIUse=3 WtCom= 9.87D-01 WtEn= 1.33D-02
 Coeff-Com: -0.105D-01 0.529D-01 0.249D+00 0.709D+00
 Coeff-En:   0.000D+00 0.000D+00 0.000D+00 0.100D+01
 Coeff:     -0.104D-01 0.522D-01 0.246D+00 0.712D+00
 Gap=     0.494 Goal=   None    Shift=    0.000
 RMSDP=4.10D-05 MaxDP=3.82D-03 DE=-8.23D-03 OVMax= 4.74D-03

 Cycle   5  Pass 1  IDiag  1:
 E= -282.957416925564     Delta-E=       -0.000399901541 Rises=F Damp=F
 DIIS: error= 6.46D-04 at cycle   5 NSaved=   5.
 NSaved= 5 IEnMin= 5 EnMin= -282.957416925564     IErMin= 5 ErrMin= 6.46D-04
 ErrMax= 6.46D-04  0.00D+00 EMaxC= 1.00D-01 BMatC= 2.80D-05 BMatP= 4.94D-04
 IDIUse=3 WtCom= 9.94D-01 WtEn= 6.46D-03
 Coeff-Com:  0.174D-02-0.227D-01-0.719D-01 0.267D-01 0.107D+01
 Coeff-En:   0.000D+00 0.000D+00 0.000D+00 0.000D+00 0.100D+01
 Coeff:      0.173D-02-0.226D-01-0.715D-01 0.266D-01 0.107D+01
 Gap=     0.495 Goal=   None    Shift=    0.000
 RMSDP=2.41D-05 MaxDP=2.09D-03 DE=-4.00D-04 OVMax= 3.73D-03

 Cycle   6  Pass 1  IDiag  1:
 E= -282.957469315996     Delta-E=       -0.000052390432 Rises=F Damp=F
 DIIS: error= 1.25D-04 at cycle   6 NSaved=   6.
 NSaved= 6 IEnMin= 6 EnMin= -282.957469315996     IErMin= 6 ErrMin= 1.25D-04
 ErrMax= 1.25D-04  0.00D+00 EMaxC= 1.00D-01 BMatC= 4.52D-06 BMatP= 2.80D-05
 IDIUse=3 WtCom= 9.99D-01 WtEn= 1.25D-03
 Coeff-Com:  0.142D-02-0.108D-01-0.413D-01-0.808D-01 0.219D+00 0.912D+00
 Coeff-En:   0.000D+00 0.000D+00 0.000D+00 0.000D+00 0.000D+00 0.100D+01
 Coeff:      0.142D-02-0.107D-01-0.412D-01-0.807D-01 0.219D+00 0.912D+00
 Gap=     0.495 Goal=   None    Shift=    0.000
 RMSDP=1.08D-05 MaxDP=1.10D-03 DE=-5.24D-05 OVMax= 1.05D-03

 Cycle   7  Pass 1  IDiag  1:
 E= -282.957477267446     Delta-E=       -0.000007951451 Rises=F Damp=F
 DIIS: error= 4.47D-05 at cycle   7 NSaved=   7.
 NSaved= 7 IEnMin= 7 EnMin= -282.957477267446     IErMin= 7 ErrMin= 4.47D-05
 ErrMax= 4.47D-05  0.00D+00 EMaxC= 1.00D-01 BMatC= 5.24D-07 BMatP= 4.52D-06
 IDIUse=1 WtCom= 1.00D+00 WtEn= 0.00D+00
 Coeff-Com: -0.155D-03 0.241D-02 0.930D-02-0.114D-01-0.116D+00-0.813D-02
 Coeff-Com:  0.112D+01
 Coeff:     -0.155D-03 0.241D-02 0.930D-02-0.114D-01-0.116D+00-0.813D-02
 Coeff:      0.112D+01
 Gap=     0.496 Goal=   None    Shift=    0.000
 RMSDP=3.54D-06 MaxDP=2.10D-04 DE=-7.95D-06 OVMax= 7.15D-04

 Cycle   8  Pass 1  IDiag  1:
 E= -282.957478666738     Delta-E=       -0.000001399291 Rises=F Damp=F
 DIIS: error= 1.84D-05 at cycle   8 NSaved=   8.
 NSaved= 8 IEnMin= 8 EnMin= -282.957478666738     IErMin= 8 ErrMin= 1.84D-05
 ErrMax= 1.84D-05  0.00D+00 EMaxC= 1.00D-01 BMatC= 7.65D-08 BMatP= 5.24D-07
 IDIUse=1 WtCom= 1.00D+00 WtEn= 0.00D+00
 Coeff-Com: -0.188D-03 0.142D-02 0.555D-02 0.718D-02-0.207D-01-0.117D+00
 Coeff-Com: -0.621D-01 0.119D+01
 Coeff:     -0.188D-03 0.142D-02 0.555D-02 0.718D-02-0.207D-01-0.117D+00
 Coeff:     -0.621D-01 0.119D+01
 Gap=     0.496 Goal=   None    Shift=    0.000
 RMSDP=1.30D-06 MaxDP=7.30D-05 DE=-1.40D-06 OVMax= 3.00D-04

 Cycle   9  Pass 1  IDiag  1:
 E= -282.957478877120     Delta-E=       -0.000000210382 Rises=F Damp=F
 DIIS: error= 6.95D-06 at cycle   9 NSaved=   9.
 NSaved= 9 IEnMin= 9 EnMin= -282.957478877120     IErMin= 9 ErrMin= 6.95D-06
 ErrMax= 6.95D-06  0.00D+00 EMaxC= 1.00D-01 BMatC= 1.02D-08 BMatP= 7.65D-08
 IDIUse=1 WtCom= 1.00D+00 WtEn= 0.00D+00
 Coeff-Com: -0.147D-04-0.513D-04-0.159D-03 0.193D-02 0.138D-01-0.194D-01
 Coeff-Com: -0.156D+00 0.192D+00 0.968D+00
 Coeff:     -0.147D-04-0.513D-04-0.159D-03 0.193D-02 0.138D-01-0.194D-01
 Coeff:     -0.156D+00 0.192D+00 0.968D+00
 Gap=     0.496 Goal=   None    Shift=    0.000
 RMSDP=3.60D-07 MaxDP=1.85D-05 DE=-2.10D-07 OVMax= 9.12D-05

 Cycle  10  Pass 1  IDiag  1:
 E= -282.957478899239     Delta-E=       -0.000000022119 Rises=F Damp=F
 DIIS: error= 2.86D-06 at cycle  10 NSaved=  10.
 NSaved=10 IEnMin=10 EnMin= -282.957478899239     IErMin=10 ErrMin= 2.86D-06
 ErrMax= 2.86D-06  0.00D+00 EMaxC= 1.00D-01 BMatC= 1.19D-09 BMatP= 1.02D-08
 IDIUse=1 WtCom= 1.00D+00 WtEn= 0.00D+00
 Coeff-Com:  0.251D-04-0.208D-03-0.767D-03-0.126D-02 0.442D-02 0.144D-01
 Coeff-Com:  0.318D-02-0.163D+00 0.547D-01 0.109D+01
 Coeff:      0.251D-04-0.208D-03-0.767D-03-0.126D-02 0.442D-02 0.144D-01
 Coeff:      0.318D-02-0.163D+00 0.547D-01 0.109D+01
 Gap=     0.496 Goal=   None    Shift=    0.000
 RMSDP=1.50D-07 MaxDP=8.94D-06 DE=-2.21D-08 OVMax= 2.81D-05

 Cycle  11  Pass 1  IDiag  1:
 E= -282.957478901879     Delta-E=       -0.000000002640 Rises=F Damp=F
 DIIS: error= 6.04D-07 at cycle  11 NSaved=  11.
 NSaved=11 IEnMin=11 EnMin= -282.957478901879     IErMin=11 ErrMin= 6.04D-07
 ErrMax= 6.04D-07  0.00D+00 EMaxC= 1.00D-01 BMatC= 7.91D-11 BMatP= 1.19D-09
 IDIUse=1 WtCom= 1.00D+00 WtEn= 0.00D+00
 Coeff-Com:  0.410D-06 0.777D-05 0.583D-04-0.134D-03-0.124D-02 0.328D-03
 Coeff-Com:  0.129D-01-0.416D-02-0.889D-01-0.882D-01 0.117D+01
 Coeff:      0.410D-06 0.777D-05 0.583D-04-0.134D-03-0.124D-02 0.328D-03
 Coeff:      0.129D-01-0.416D-02-0.889D-01-0.882D-01 0.117D+01
 Gap=     0.496 Goal=   None    Shift=    0.000
 RMSDP=5.72D-08 MaxDP=4.86D-06 DE=-2.64D-09 OVMax= 6.81D-06

 Cycle  12  Pass 1  IDiag  1:
 E= -282.957478902073     Delta-E=       -0.000000000194 Rises=F Damp=F
 DIIS: error= 2.05D-07 at cycle  12 NSaved=  12.
 NSaved=12 IEnMin=12 EnMin= -282.957478902073     IErMin=12 ErrMin= 2.05D-07
 ErrMax= 2.05D-07  0.00D+00 EMaxC= 1.00D-01 BMatC= 4.78D-12 BMatP= 7.91D-11
 IDIUse=1 WtCom= 1.00D+00 WtEn= 0.00D+00
 Coeff-Com: -0.174D-05 0.138D-04 0.537D-04 0.843D-04-0.232D-03-0.101D-02
 Coeff-Com: -0.123D-02 0.134D-01-0.350D-03-0.774D-01-0.530D-01 0.112D+01
 Coeff:     -0.174D-05 0.138D-04 0.537D-04 0.843D-04-0.232D-03-0.101D-02
 Coeff:     -0.123D-02 0.134D-01-0.350D-03-0.774D-01-0.530D-01 0.112D+01
 Gap=     0.496 Goal=   None    Shift=    0.000
 RMSDP=1.33D-08 MaxDP=1.06D-06 DE=-1.94D-10 OVMax= 1.29D-06

 Cycle  13  Pass 1  IDiag  1:
 E= -282.957478902084     Delta-E=       -0.000000000012 Rises=F Damp=F
 DIIS: error= 4.10D-08 at cycle  13 NSaved=  13.
 NSaved=13 IEnMin=13 EnMin= -282.957478902084     IErMin=13 ErrMin= 4.10D-08
 ErrMax= 4.10D-08  0.00D+00 EMaxC= 1.00D-01 BMatC= 4.01D-13 BMatP= 4.78D-12
 IDIUse=1 WtCom= 1.00D+00 WtEn= 0.00D+00
 Coeff-Com:  0.704D-08-0.100D-05-0.583D-05 0.718D-05 0.120D-03 0.499D-05
 Coeff-Com: -0.125D-02 0.602D-03 0.740D-02 0.574D-02-0.971D-01 0.305D-01
 Coeff-Com:  0.105D+01
 Coeff:      0.704D-08-0.100D-05-0.583D-05 0.718D-05 0.120D-03 0.499D-05
 Coeff:     -0.125D-02 0.602D-03 0.740D-02 0.574D-02-0.971D-01 0.305D-01
 Coeff:      0.105D+01
 Gap=     0.496 Goal=   None    Shift=    0.000
 RMSDP=2.90D-09 MaxDP=1.82D-07 DE=-1.18D-11 OVMax= 3.46D-07

 SCF Done:  E(RHF) =  -282.957478902     A.U. after   13 cycles
            NFock= 13  Conv=0.29D-08     -V/T= 2.0010
 KE= 2.826667351084D+02 PE=-1.026448406760D+03 EE= 2.807500670594D+02
 Leave Link  502 at Fri Jan 15 18:05:59 2021, MaxMem= 13421772800 cpu:             846.2 elap:              55.2
 (Enter /data2/software/Gaussian/g16_from_xuruiqin/g16/l801.exe)
 ExpMin= 8.99D-02 ExpMax= 6.14D+04 ExpMxC= 5.91D+02 IAcc=3 IRadAn=         5 AccDes= 0.00D+00
 HarFok:  IExCor=  205 AccDes= 0.00D+00 IRadAn=         5 IDoV=-2 UseB2=F ITyADJ=14
 ICtDFT= 12500011 ScaDFX=  1.000000  1.000000  1.000000  1.000000
 Largest valence mixing into a core orbital is  1.86D-04
 Largest core mixing into a valence orbital is  2.97D-05
 Range of M.O.s used for correlation:     6   425
 NBasis=   425 NAE=    20 NBE=    20 NFC=     5 NFV=     0
 NROrb=    420 NOA=    15 NOB=    15 NVA=   405 NVB=   405

 **** Warning!!: The largest alpha MO coefficient is  0.20599457D+02

 Leave Link  801 at Fri Jan 15 18:06:00 2021, MaxMem= 13421772800 cpu:               5.1 elap:               0.2
 (Enter /data2/software/Gaussian/g16_from_xuruiqin/g16/l906.exe)
 FulOut=F Deriv=F AODrv=F NAtomX=    10
   MMem=         139  MDisk=          15 MDiskD=          15
  W3Min=     3189375 MinDsk=     4853450 NBas6D=         525
 NBas2D=      139755    NTT=      138075    LW2=     4508827
    MDV= 13420706966 MDiskM=       56798 NBas2p=      104197
 Fully direct method using O(OVN) memory.
 IMap=   1   2   3   4   5   6   7   8   9  10  11  12  13  14  15
 JobTyp=1 Pass  1:  I=   1 to  15 NPSUse= 28 ParTrn=T ParDer=T DoDerP=F.
 Spin components of T(2) and E(2):
     alpha-alpha T2 =       0.3648300640D-01 E2=     -0.1326478275D+00
     alpha-beta  T2 =       0.2043624216D+00 E2=     -0.8195521224D+00
     beta-beta   T2 =       0.3648300640D-01 E2=     -0.1326478275D+00
 The integrals were generated   1 times.
 ANorm=    0.1130189557D+01
 E2 =    -0.1084847777D+01 EUMP2 =    -0.28404232667944D+03
 Leave Link  906 at Fri Jan 15 18:07:10 2021, MaxMem= 13421772800 cpu:            1981.1 elap:              70.8
 (Enter /data2/software/Gaussian/g16_from_xuruiqin/g16/l601.exe)
 Copying SCF densities to generalized density rwf, IOpCl= 0 IROHF=0.

 **********************************************************************

            Population analysis using the SCF Density.

 **********************************************************************

 Orbital symmetries:
       Occupied  (A') (A') (A') (A') (A') (A') (A') (A') (A') (A')
                 (A') (A") (A') (A") (A') (A') (A") (A') (A") (A')
       Virtual   (A') (A') (A") (A") (A') (A") (A') (A') (A') (A")
                 (A') (A") (A') (A') (A') (A') (A") (A') (A") (A')
                 (A') (A') (A") (A") (A') (A') (A') (A") (A") (A')
                 (A') (A') (A') (A') (A") (A") (A') (A") (A') (A")
                 (A') (A') (A") (A") (A') (A') (A") (A') (A') (A")
                 (A') (A') (A") (A') (A') (A") (A') (A') (A") (A')
                 (A') (A") (A') (A') (A') (A") (A') (A") (A') (A')
                 (A") (A') (A') (A") (A") (A') (A") (A') (A') (A')
                 (A") (A') (A") (A') (A') (A") (A') (A') (A") (A")
                 (A") (A') (A') (A") (A') (A") (A') (A") (A') (A')
                 (A") (A") (A') (A') (A") (A') (A") (A") (A") (A')
                 (A') (A') (A") (A') (A') (A") (A") (A') (A') (A')
                 (A") (A') (A') (A") (A') (A") (A') (A") (A') (A")
                 (A') (A") (A') (A') (A") (A") (A') (A') (A') (A")
                 (A') (A") (A") (A') (A") (A') (A') (A') (A") (A')
                 (A') (A') (A") (A') (A') (A") (A') (A') (A") (A")
                 (A') (A') (A") (A') (A') (A') (A") (A') (A') (A")
                 (A') (A') (A") (A') (A") (A") (A') (A") (A') (A')
                 (A") (A') (A") (A") (A') (A') (A") (A') (A') (A")
                 (A') (A") (A') (A') (A") (A') (A') (A') (A") (A')
                 (A') (A") (A') (A") (A') (A") (A') (A') (A') (A")
                 (A") (A") (A') (A") (A') (A") (A") (A') (A") (A')
                 (A') (A") (A') (A') (A") (A') (A") (A') (A") (A")
                 (A') (A") (A') (A') (A") (A') (A") (A") (A') (A')
                 (A') (A") (A') (A') (A") (A') (A") (A") (A') (A")
                 (A') (A") (A') (A") (A') (A") (A') (A") (A') (A")
                 (A') (A') (A") (A") (A') (A') (A") (A') (A') (A")
                 (A') (A") (A') (A') (A") (A') (A") (A') (A') (A')
                 (A") (A') (A") (A') (A") (A") (A') (A") (A") (A')
                 (A') (A') (A') (A') (A") (A") (A') (A") (A') (A')
                 (A') (A") (A') (A") (A") (A') (A') (A") (A') (A')
                 (A") (A') (A') (A') (A") (A') (A") (A') (A") (A')
                 (A') (A") (A') (A") (A') (A") (A") (A') (A') (A")
                 (A') (A") (A') (A') (A') (A") (A') (A') (A") (A')
                 (A") (A") (A') (A") (A') (A") (A') (A') (A") (A")
                 (A") (A') (A") (A') (A") (A") (A') (A') (A') (A')
                 (A") (A') (A") (A') (A') (A') (A') (A") (A') (A")
                 (A') (A') (A') (A") (A') (A") (A") (A") (A') (A")
                 (A') (A") (A") (A') (A') (A") (A') (A') (A") (A')
                 (A') (A") (A') (A') (A') (A") (A') (A") (A') (A')
                 (A') (A') (A') (A') (A')
 The electronic state is 1-A'.
 Alpha  occ. eigenvalues --  -20.61190 -20.53732 -15.57656 -11.37903 -11.28871
 Alpha  occ. eigenvalues --   -1.46347  -1.36461  -1.21887  -0.97809  -0.82986
 Alpha  occ. eigenvalues --   -0.74345  -0.72521  -0.67038  -0.63446  -0.62209
 Alpha  occ. eigenvalues --   -0.56925  -0.55939  -0.48510  -0.47500  -0.40803
 Alpha virt. eigenvalues --    0.08753   0.13243   0.13528   0.15997   0.16878
 Alpha virt. eigenvalues --    0.21697   0.23922   0.26550   0.29972   0.33905
 Alpha virt. eigenvalues --    0.35726   0.37161   0.37705   0.40124   0.40508
 Alpha virt. eigenvalues --    0.41379   0.42806   0.45347   0.46008   0.50201
 Alpha virt. eigenvalues --    0.52341   0.53040   0.55545   0.56367   0.56420
 Alpha virt. eigenvalues --    0.59468   0.61391   0.64842   0.66336   0.68769
 Alpha virt. eigenvalues --    0.69732   0.71447   0.73531   0.76416   0.77102
 Alpha virt. eigenvalues --    0.81801   0.81938   0.84756   0.91587   0.91795
 Alpha virt. eigenvalues --    0.91809   0.94178   0.95848   0.96834   0.97401
 Alpha virt. eigenvalues --    1.02127   1.06514   1.08003   1.08446   1.10074
 Alpha virt. eigenvalues --    1.10259   1.12608   1.13418   1.16204   1.18973
 Alpha virt. eigenvalues --    1.19685   1.21771   1.25162   1.30296   1.30742
 Alpha virt. eigenvalues --    1.32402   1.40090   1.42348   1.44540   1.50237
 Alpha virt. eigenvalues --    1.50464   1.53788   1.54835   1.56437   1.59652
 Alpha virt. eigenvalues --    1.59868   1.64507   1.69250   1.70005   1.74869
 Alpha virt. eigenvalues --    1.75589   1.78550   1.83585   1.87327   1.88716
 Alpha virt. eigenvalues --    1.89521   1.91128   1.93866   1.98246   2.01034
 Alpha virt. eigenvalues --    2.03548   2.06495   2.07407   2.10948   2.12378
 Alpha virt. eigenvalues --    2.15364   2.15894   2.19863   2.22565   2.23544
 Alpha virt. eigenvalues --    2.27357   2.30192   2.32214   2.32242   2.37923
 Alpha virt. eigenvalues --    2.37939   2.40138   2.41211   2.42768   2.43995
 Alpha virt. eigenvalues --    2.47131   2.48108   2.51489   2.54062   2.54295
 Alpha virt. eigenvalues --    2.55337   2.55966   2.59426   2.62489   2.66634
 Alpha virt. eigenvalues --    2.67021   2.68225   2.68525   2.71471   2.78273
 Alpha virt. eigenvalues --    2.80090   2.81262   2.84606   2.84764   2.86411
 Alpha virt. eigenvalues --    2.88563   2.89652   2.89925   3.02579   3.04512
 Alpha virt. eigenvalues --    3.05975   3.08293   3.08588   3.11301   3.11559
 Alpha virt. eigenvalues --    3.13196   3.17007   3.21090   3.27297   3.28761
 Alpha virt. eigenvalues --    3.31646   3.32436   3.35987   3.39451   3.40735
 Alpha virt. eigenvalues --    3.41578   3.45115   3.50949   3.51930   3.54768
 Alpha virt. eigenvalues --    3.58652   3.62430   3.65941   3.68251   3.69475
 Alpha virt. eigenvalues --    3.73162   3.74948   3.76647   3.79968   3.84084
 Alpha virt. eigenvalues --    3.86294   3.90471   3.90689   3.94079   4.01517
 Alpha virt. eigenvalues --    4.07606   4.07830   4.12498   4.12857   4.17925
 Alpha virt. eigenvalues --    4.18187   4.23024   4.27394   4.30978   4.32396
 Alpha virt. eigenvalues --    4.35633   4.41481   4.45349   4.47852   4.49412
 Alpha virt. eigenvalues --    4.53292   4.53488   4.55094   4.61458   4.61619
 Alpha virt. eigenvalues --    4.66308   4.70254   4.72700   4.79814   4.83483
 Alpha virt. eigenvalues --    4.85369   4.90291   4.92127   5.00855   5.01013
 Alpha virt. eigenvalues --    5.20063   5.20858   5.32063   5.40071   5.41111
 Alpha virt. eigenvalues --    5.54871   5.62855   5.65304   5.72868   5.79114
 Alpha virt. eigenvalues --    5.83233   5.84806   5.90532   5.91289   5.94573
 Alpha virt. eigenvalues --    5.98189   6.02124   6.05781   6.09730   6.09747
 Alpha virt. eigenvalues --    6.10304   6.17990   6.19012   6.21172   6.25057
 Alpha virt. eigenvalues --    6.27508   6.29739   6.34632   6.35651   6.37193
 Alpha virt. eigenvalues --    6.41172   6.44257   6.51198   6.52221   6.53711
 Alpha virt. eigenvalues --    6.57822   6.60988   6.61365   6.63316   6.67496
 Alpha virt. eigenvalues --    6.73856   6.77577   6.78863   6.81149   6.83130
 Alpha virt. eigenvalues --    6.89411   6.97506   6.98032   7.02804   7.04074
 Alpha virt. eigenvalues --    7.06506   7.11168   7.17527   7.18759   7.19449
 Alpha virt. eigenvalues --    7.21761   7.26096   7.32671   7.32803   7.39849
 Alpha virt. eigenvalues --    7.42939   7.43493   7.46520   7.53187   7.54189
 Alpha virt. eigenvalues --    7.56408   7.58409   7.60168   7.68164   7.68290
 Alpha virt. eigenvalues --    7.74939   7.77834   7.79252   7.86173   7.88357
 Alpha virt. eigenvalues --    7.90698   7.92642   7.97473   7.99139   8.00946
 Alpha virt. eigenvalues --    8.02103   8.04267   8.04579   8.08559   8.12581
 Alpha virt. eigenvalues --    8.14573   8.17205   8.18974   8.23505   8.25050
 Alpha virt. eigenvalues --    8.30257   8.32567   8.37554   8.39290   8.39648
 Alpha virt. eigenvalues --    8.43602   8.47792   8.50369   8.54066   8.56432
 Alpha virt. eigenvalues --    8.60487   8.61616   8.65984   8.67019   8.74228
 Alpha virt. eigenvalues --    8.77265   8.79142   8.80185   8.86181   8.89590
 Alpha virt. eigenvalues --    8.90404   8.94493   8.98221   8.98277   9.00620
 Alpha virt. eigenvalues --    9.08354   9.09304   9.13131   9.17798   9.18222
 Alpha virt. eigenvalues --    9.18772   9.25656   9.27433   9.31388   9.35457
 Alpha virt. eigenvalues --    9.39263   9.39734   9.40831   9.42299   9.53974
 Alpha virt. eigenvalues --    9.54400   9.63659   9.69365   9.73130   9.75044
 Alpha virt. eigenvalues --    9.78518   9.87831   9.91271   9.95822  10.19973
 Alpha virt. eigenvalues --   10.21300  10.25747  10.30353  10.32168  10.36893
 Alpha virt. eigenvalues --   10.37606  10.41458  10.45447  10.51265  10.53620
 Alpha virt. eigenvalues --   10.53782  10.58626  10.66610  10.69268  10.75653
 Alpha virt. eigenvalues --   10.78159  10.89389  10.90542  10.94478  10.96250
 Alpha virt. eigenvalues --   11.05829  11.07062  11.14551  11.25362  11.35223
 Alpha virt. eigenvalues --   11.47922  11.48143  11.62380  11.64213  11.66958
 Alpha virt. eigenvalues --   11.70321  11.90876  11.94476  11.94853  12.05490
 Alpha virt. eigenvalues --   12.08573  12.14425  12.20209  12.20857  12.24815
 Alpha virt. eigenvalues --   12.28767  12.31021  12.42620  12.44168  12.45632
 Alpha virt. eigenvalues --   12.49436  12.73619  12.79041  12.80694  12.88959
 Alpha virt. eigenvalues --   12.88966  12.98055  13.05795  13.19449  13.50315
 Alpha virt. eigenvalues --   13.62190  13.93290  14.17713  14.28127  14.40266
 Alpha virt. eigenvalues --   14.40300  14.58216  14.70311  14.79974  16.70708
 Alpha virt. eigenvalues --   24.85399  26.68813  34.76344  43.01363  44.20482
          Condensed to atoms (all electrons):
               1          2          3          4          5          6
     1  C    4.244640   0.369799   0.730332  -0.052522   0.349349  -0.099738
     2  O    0.369799   7.878893  -0.075290   0.318686  -0.103787   0.008224
     3  O    0.730332  -0.075290   7.851238   0.007110  -0.093114   0.010872
     4  H   -0.052522   0.318686   0.007110   0.452378  -0.009938   0.019333
     5  C    0.349349  -0.103787  -0.093114  -0.009938   4.970635   0.209688
     6  N   -0.099738   0.008224   0.010872   0.019333   0.209688   6.449772
     7  H   -0.041151   0.002803   0.003934   0.000963   0.403028  -0.019076
     8  H   -0.041151   0.002803   0.003934   0.000963   0.403028  -0.019076
     9  H   -0.002883   0.000599  -0.000161   0.001956  -0.020068   0.406357
    10  H   -0.002883   0.000599  -0.000161   0.001956  -0.020068   0.406357
               7          8          9         10
     1  C   -0.041151  -0.041151  -0.002883  -0.002883
     2  O    0.002803   0.002803   0.000599   0.000599
     3  O    0.003934   0.003934  -0.000161  -0.000161
     4  H    0.000963   0.000963   0.001956   0.001956
     5  C    0.403028   0.403028  -0.020068  -0.020068
     6  N   -0.019076  -0.019076   0.406357   0.406357
     7  H    0.549958  -0.012366  -0.007985   0.005532
     8  H   -0.012366   0.549958   0.005532  -0.007985
     9  H   -0.007985   0.005532   0.519780  -0.037851
    10  H    0.005532  -0.007985  -0.037851   0.519780
 Mulliken charges:
               1
     1  C    0.546209
     2  O   -0.403330
     3  O   -0.438693
     4  H    0.259114
     5  C   -0.088753
     6  N   -0.372714
     7  H    0.114359
     8  H    0.114359
     9  H    0.134725
    10  H    0.134725
 Sum of Mulliken charges =  -0.00000
 Mulliken charges with hydrogens summed into heavy atoms:
               1
     1  C    0.546209
     2  O   -0.144216
     3  O   -0.438693
     5  C    0.139964
     6  N   -0.103264
 Electronic spatial extent (au):  <R**2>=            416.0621
 Charge=             -0.0000 electrons
 Dipole moment (field-independent basis, Debye):
    X=             -0.9929    Y=             -4.5729    Z=             -0.0000  Tot=              4.6795
 Quadrupole moment (field-independent basis, Debye-Ang):
   XX=            -29.7469   YY=            -37.3803   ZZ=            -26.8234
   XY=              3.1318   XZ=             -0.0000   YZ=              0.0000
 Traceless Quadrupole moment (field-independent basis, Debye-Ang):
   XX=              1.5699   YY=             -6.0634   ZZ=              4.4935
   XY=              3.1318   XZ=             -0.0000   YZ=              0.0000
 Octapole moment (field-independent basis, Debye-Ang**2):
  XXX=             -3.5580  YYY=             -6.7379  ZZZ=              0.0000  XYY=            -12.9028
  XXY=             -5.2755  XXZ=             -0.0000  XZZ=             -0.6083  YZZ=             -3.4352
  YYZ=             -0.0000  XYZ=             -0.0000
 Hexadecapole moment (field-independent basis, Debye-Ang**3):
 XXXX=           -139.1548 YYYY=           -358.4048 ZZZZ=            -33.4320 XXXY=             15.0446
 XXXZ=             -0.0000 YYYX=             23.6367 YYYZ=              0.0000 ZZZX=              0.0000
 ZZZY=             -0.0000 XXYY=            -82.4287 XXZZ=            -28.0902 YYZZ=            -50.7699
 XXYZ=              0.0000 YYXZ=              0.0000 ZZXY=              4.3552
 N-N= 1.800741256900D+02 E-N=-1.026448404481D+03  KE= 2.826667351084D+02
 Symmetry A'   KE= 2.698512894218D+02
 Symmetry A"   KE= 1.281544568661D+01
 Leave Link  601 at Fri Jan 15 18:07:11 2021, MaxMem= 13421772800 cpu:               9.9 elap:               0.5
 (Enter /data2/software/Gaussian/g16_from_xuruiqin/g16/l9999.exe)
 Unable to Open any file for archive entry.
 1\1\GINC-CPU01\SP\RMP2-FC\CC-pVQZ\C2H5N1O2\SHUCHONG\15-Jan-2021\0\\#p 
 MP2 cc-pVQZ\\VII_SP\\0,1\C\O,1,1.3457355\O,1,1.19814681,2,121.21259871
 \H,2,0.96472033,1,108.75235793,3,180.,0\C,1,1.52715094,3,122.19981511,
 2,180.,0\N,5,1.44047578,1,118.81834226,3,180.,0\H,5,1.08922214,1,105.9
 9599411,3,56.33573548,0\H,5,1.08922214,1,105.99599411,3,-56.33573548,0
 \H,6,1.0056583,5,116.68391241,1,-68.87806903,0\H,6,1.0056583,5,116.683
 91241,1,68.87806903,0\\Version=ES64L-G16RevC.01\State=1-A'\HF=-282.957
 4789\MP2=-284.0423267\RMSD=2.900e-09\PG=CS [SG(C2H1N1O2),X(H4)]\\@
 The archive entry for this job was punched.


 ASKING DUMB QUESTIONS IS EASIER THAN CORECTING DUMB MISTAKES.
 Job cpu time:       0 days  0 hours 49 minutes 18.5 seconds.
 Elapsed time:       0 days  0 hours  2 minutes 11.1 seconds.
 File lengths (MBytes):  RWF=     74 Int=      0 D2E=      0 Chk=     13 Scr=      1
 Normal termination of Gaussian 16 at Fri Jan 15 18:07:12 2021.
