 Entering Gaussian System, Link 0=g16
 Input=c5_MP2-jun-cc-pVQZ.gjf
 Output=c5_MP2-jun-cc-pVQZ.log
 Initial command:
 /home/share/software/programs/Gaussian/g16/l1.exe "/home/qr/scratch/Gau-378193.inp" -scrdir="/home/qr/scratch/"
 Entering Link 1 = /home/share/software/programs/Gaussian/g16/l1.exe PID=    378194.
  
 Copyright (c) 1988-2019, Gaussian, Inc.  All Rights Reserved.
  
 This is part of the Gaussian(R) 16 program.  It is based on
 the Gaussian(R) 09 system (copyright 2009, Gaussian, Inc.),
 the Gaussian(R) 03 system (copyright 2003, Gaussian, Inc.),
 the Gaussian(R) 98 system (copyright 1998, Gaussian, Inc.),
 the Gaussian(R) 94 system (copyright 1995, Gaussian, Inc.),
 the Gaussian 92(TM) system (copyright 1992, Gaussian, Inc.),
 the Gaussian 90(TM) system (copyright 1990, Gaussian, Inc.),
 the Gaussian 88(TM) system (copyright 1988, Gaussian, Inc.),
 the Gaussian 86(TM) system (copyright 1986, Carnegie Mellon
 University), and the Gaussian 82(TM) system (copyright 1983,
 Carnegie Mellon University). Gaussian is a federally registered
 trademark of Gaussian, Inc.
  
 This software contains proprietary and confidential information,
 including trade secrets, belonging to Gaussian, Inc.
  
 This software is provided under written license and may be
 used, copied, transmitted, or stored only in accord with that
 written license.
  
 The following legend is applicable only to US Government
 contracts under FAR:
  
                    RESTRICTED RIGHTS LEGEND
  
 Use, reproduction and disclosure by the US Government is
 subject to restrictions as set forth in subparagraphs (a)
 and (c) of the Commercial Computer Software - Restricted
 Rights clause in FAR 52.227-19.
  
 Gaussian, Inc.
 340 Quinnipiac St., Bldg. 40, Wallingford CT 06492
  
  
 ---------------------------------------------------------------
 Warning -- This program may not be used in any manner that
 competes with the business of Gaussian, Inc. or will provide
 assistance to any competitor of Gaussian, Inc.  The licensee
 of this program is prohibited from giving any competitor of
 Gaussian, Inc. access to this program.  By using this program,
 the user acknowledges that Gaussian, Inc. is engaged in the
 business of creating and licensing software in the field of
 computational chemistry and represents and warrants to the
 licensee that it is not a competitor of Gaussian, Inc. and that
 it will not use this program in any manner prohibited above.
 ---------------------------------------------------------------
  

 Cite this work as:
 Gaussian 16, Revision C.01,
 M. J. Frisch, G. W. Trucks, H. B. Schlegel, G. E. Scuseria, 
 M. A. Robb, J. R. Cheeseman, G. Scalmani, V. Barone, 
 G. A. Petersson, H. Nakatsuji, X. Li, M. Caricato, A. V. Marenich, 
 J. Bloino, B. G. Janesko, R. Gomperts, B. Mennucci, H. P. Hratchian, 
 J. V. Ortiz, A. F. Izmaylov, J. L. Sonnenberg, D. Williams-Young, 
 F. Ding, F. Lipparini, F. Egidi, J. Goings, B. Peng, A. Petrone, 
 T. Henderson, D. Ranasinghe, V. G. Zakrzewski, J. Gao, N. Rega, 
 G. Zheng, W. Liang, M. Hada, M. Ehara, K. Toyota, R. Fukuda, 
 J. Hasegawa, M. Ishida, T. Nakajima, Y. Honda, O. Kitao, H. Nakai, 
 T. Vreven, K. Throssell, J. A. Montgomery, Jr., J. E. Peralta, 
 F. Ogliaro, M. J. Bearpark, J. J. Heyd, E. N. Brothers, K. N. Kudin, 
 V. N. Staroverov, T. A. Keith, R. Kobayashi, J. Normand, 
 K. Raghavachari, A. P. Rendell, J. C. Burant, S. S. Iyengar, 
 J. Tomasi, M. Cossi, J. M. Millam, M. Klene, C. Adamo, R. Cammi, 
 J. W. Ochterski, R. L. Martin, K. Morokuma, O. Farkas, 
 J. B. Foresman, and D. J. Fox, Gaussian, Inc., Wallingford CT, 2019.
 
 ******************************************
 Gaussian 16:  ES64L-G16RevC.01  3-Jul-2019
                 8-Jan-2021 
 ******************************************
 %nprocshared=64
 Will use up to   64 processors via shared memory.
 %mem=60GB
 %chk=c5_MP2-jun-cc-pVQZ.chk
 ------------------
 #p MP2/jun-cc-pvqz
 ------------------
 1/38=1,172=1/1;
 2/12=2,17=6,18=5,40=1/2;
 3/5=16,6=2,7=60,11=9,25=1,30=1/1,2,3;
 4//1;
 5/5=2,38=5/2;
 8/10=1/1;
 9/16=-3/6;
 6/7=2,8=2,9=2,10=2/1;
 99/5=1,9=1/99;
 Leave Link    1 at Fri Jan  8 20:28:12 2021, MaxMem=  8053063680 cpu:               3.0 elap:               0.1
 (Enter /home/share/software/programs/Gaussian/g16/l101.exe)
 --
 SP
 --
 Symbolic Z-matrix:
 Charge =  0 Multiplicity = 1
 C                     0.        0.        0. 
 C                     0.        0.        1.51537 
 N                     1.22645   0.        2.08561 
 H                     2.06334   0.        1.53452 
 H                     1.29305   0.        3.08687 
 O                    -1.03135   0.        2.16294 
 N                    -1.35879   0.       -0.46185 
 C                    -1.63502   0.       -1.7858 
 O                    -0.74253   0.       -2.62242 
 H                    -2.07785   0.        0.24356 
 C                    -3.09421   0.       -2.16061 
 H                    -3.75203   0.       -1.29433 
 H                    -3.29389   0.87987  -2.76816 
 H                    -3.29389  -0.87987  -2.76816 
 H                     0.5297   -0.87728  -0.37942 
 H                     0.5297    0.87728  -0.37942 
 
 ITRead=  0  0  0  0  0  0  0  0  0  0  0  0  0  0  0  0
 MicOpt= -1 -1 -1 -1 -1 -1 -1 -1 -1 -1 -1 -1 -1 -1 -1 -1
 NAtoms=     16 NQM=       16 NQMF=       0 NMMI=      0 NMMIF=      0
                NMic=       0 NMicF=      0.
                    Isotopes and Nuclear Properties:
 (Nuclear quadrupole moments (NQMom) in fm**2, nuclear magnetic moments (NMagM)
  in nuclear magnetons)

  Atom         1           2           3           4           5           6           7           8           9          10
 IAtWgt=          12          12          14           1           1          16          14          12          16           1
 AtmWgt=  12.0000000  12.0000000  14.0030740   1.0078250   1.0078250  15.9949146  14.0030740  12.0000000  15.9949146   1.0078250
 NucSpn=           0           0           2           1           1           0           2           0           0           1
 AtZEff=  -0.0000000  -0.0000000  -0.0000000  -0.0000000  -0.0000000  -0.0000000  -0.0000000  -0.0000000  -0.0000000  -0.0000000
 NQMom=    0.0000000   0.0000000   2.0440000   0.0000000   0.0000000   0.0000000   2.0440000   0.0000000   0.0000000   0.0000000
 NMagM=    0.0000000   0.0000000   0.4037610   2.7928460   2.7928460   0.0000000   0.4037610   0.0000000   0.0000000   2.7928460
 AtZNuc=   6.0000000   6.0000000   7.0000000   1.0000000   1.0000000   8.0000000   7.0000000   6.0000000   8.0000000   1.0000000

  Atom        11          12          13          14          15          16
 IAtWgt=          12           1           1           1           1           1
 AtmWgt=  12.0000000   1.0078250   1.0078250   1.0078250   1.0078250   1.0078250
 NucSpn=           0           1           1           1           1           1
 AtZEff=  -0.0000000  -0.0000000  -0.0000000  -0.0000000  -0.0000000  -0.0000000
 NQMom=    0.0000000   0.0000000   0.0000000   0.0000000   0.0000000   0.0000000
 NMagM=    0.0000000   2.7928460   2.7928460   2.7928460   2.7928460   2.7928460
 AtZNuc=   6.0000000   1.0000000   1.0000000   1.0000000   1.0000000   1.0000000
 Leave Link  101 at Fri Jan  8 20:28:12 2021, MaxMem=  8053063680 cpu:               7.9 elap:               0.2
 (Enter /home/share/software/programs/Gaussian/g16/l202.exe)
                          Input orientation:                          
 ---------------------------------------------------------------------
 Center     Atomic      Atomic             Coordinates (Angstroms)
 Number     Number       Type             X           Y           Z
 ---------------------------------------------------------------------
      1          6           0        0.000000    0.000000    0.000000
      2          6           0        0.000000    0.000000    1.515372
      3          7           0        1.226452    0.000000    2.085612
      4          1           0        2.063339    0.000000    1.534524
      5          1           0        1.293050    0.000000    3.086867
      6          8           0       -1.031347    0.000000    2.162939
      7          7           0       -1.358794    0.000000   -0.461846
      8          6           0       -1.635023    0.000000   -1.785799
      9          8           0       -0.742532    0.000000   -2.622424
     10          1           0       -2.077846    0.000000    0.243562
     11          6           0       -3.094215    0.000000   -2.160612
     12          1           0       -3.752025    0.000000   -1.294327
     13          1           0       -3.293893    0.879869   -2.768156
     14          1           0       -3.293893   -0.879869   -2.768156
     15          1           0        0.529698   -0.877284   -0.379418
     16          1           0        0.529698    0.877284   -0.379418
 ---------------------------------------------------------------------
                    Distance matrix (angstroms):
                    1          2          3          4          5
     1  C    0.000000
     2  C    1.515372   0.000000
     3  N    2.419496   1.352537   0.000000
     4  H    2.571407   2.063428   1.002037   0.000000
     5  H    3.346748   2.035086   1.003468   1.732949   0.000000
     6  O    2.396243   1.217793   2.259122   3.157845   2.501292
     7  N    1.435138   2.399106   3.629468   3.961879   4.430083
     8  C    2.421235   3.683888   4.814131   4.970154   5.684759
     9  O    2.725520   4.203891   5.103184   5.015289   6.061319
    10  H    2.092072   2.436174   3.783058   4.337741   4.409912
    11  C    3.773912   4.804896   6.057935   6.344635   6.839893
    12  H    3.969002   4.687441   6.017409   6.466905   6.681889
    13  H    4.391650   5.474716   6.690796   6.927277   7.489694
    14  H    4.391650   5.474716   6.690796   6.927277   7.489694
    15  H    1.092779   2.154167   2.707668   2.604776   3.656154
    16  H    1.092779   2.154167   2.707668   2.604776   3.656154
                    6          7          8          9         10
     6  O    0.000000
     7  N    2.645131   0.000000
     8  C    3.994616   1.352463   0.000000
     9  O    4.794070   2.246747   1.223307   0.000000
    10  H    2.186131   1.007291   2.077113   3.161793   0.000000
    11  C    4.790461   2.428475   1.506560   2.396598   2.610184
    12  H    4.399407   2.533886   2.173302   3.289512   2.273319
    13  H    5.496270   3.136534   2.119208   2.702749   3.365023
    14  H    5.496270   3.136534   2.119208   2.702749   3.365023
    15  H    3.109673   2.083944   2.726454   2.723833   2.820818
    16  H    3.109673   2.083944   2.726454   2.723833   2.820818
                   11         12         13         14         15
    11  C    0.000000
    12  H    1.087734   0.000000
    13  H    1.087727   1.776577   0.000000
    14  H    1.087727   1.776577   1.759737   0.000000
    15  H    4.132194   4.465405   4.838750   4.508428   0.000000
    16  H    4.132194   4.465405   4.508428   4.838750   1.754568
                   16
    16  H    0.000000
 Stoichiometry    C4H8N2O2
 Framework group  CS[SG(C4H4N2O2),X(H4)]
 Deg. of freedom    27
 Full point group                 CS      NOp   2
 Largest Abelian subgroup         CS      NOp   2
 Largest concise Abelian subgroup CS      NOp   2
                         Standard orientation:                         
 ---------------------------------------------------------------------
 Center     Atomic      Atomic             Coordinates (Angstroms)
 Number     Number       Type             X           Y           Z
 ---------------------------------------------------------------------
      1          6           0        0.282827   -0.796188    0.000000
      2          6           0       -1.027688   -1.557043    0.000000
      3          7           0       -0.905049   -2.904009    0.000000
      4          1           0       -0.008267   -3.351065    0.000000
      5          1           0       -1.737511   -3.464326    0.000000
      6          8           0       -2.105544   -0.990257    0.000000
      7          7           0        0.000000    0.610806    0.000000
      8          6           0        1.006282    1.514438    0.000000
      9          8           0        2.177919    1.162660    0.000000
     10          1           0       -0.971077    0.878473    0.000000
     11          6           0        0.597778    2.964559    0.000000
     12          1           0       -0.481679    3.098489    0.000000
     13          1           0        1.022934    3.442286    0.879869
     14          1           0        1.022934    3.442286   -0.879869
     15          1           0        0.876911   -1.063776   -0.877284
     16          1           0        0.876911   -1.063776    0.877284
 ---------------------------------------------------------------------
 Rotational constants (GHZ):           5.2812524           1.0167700           0.8616670
 Leave Link  202 at Fri Jan  8 20:28:12 2021, MaxMem=  8053063680 cpu:               2.6 elap:               0.1
 (Enter /home/share/software/programs/Gaussian/g16/l301.exe)
 Standard basis: Jun-CC-pVQZ (5D, 7F)
 Ernie: Thresh=  0.10000D-02 Tol=  0.10000D-05 Strict=F.
 Ernie:  24 primitive shells out of 392 were deleted.
 There are   638 symmetry adapted cartesian basis functions of A'  symmetry.
 There are   362 symmetry adapted cartesian basis functions of A"  symmetry.
 There are   500 symmetry adapted basis functions of A'  symmetry.
 There are   308 symmetry adapted basis functions of A"  symmetry.
   808 basis functions,  1168 primitive gaussians,  1000 cartesian basis functions
    31 alpha electrons       31 beta electrons
       nuclear repulsion energy       372.5772536764 Hartrees.
 IExCor=    0 DFT=F Ex=HF Corr=None ExCW=0 ScaHFX=  1.000000
 ScaDFX=  1.000000  1.000000  1.000000  1.000000 ScalE2=  1.000000  1.000000
 IRadAn=      5 IRanWt=     -1 IRanGd=            0 ICorTp=0 IEmpDi=  4
 NAtoms=   16 NActive=   16 NUniq=   14 SFac= 1.31D+00 NAtFMM=   60 NAOKFM=F Big=F
 Integral buffers will be    131072 words long.
 Raffenetti 1 integral format.
 Two-electron integral symmetry is turned on.
 Leave Link  301 at Fri Jan  8 20:28:12 2021, MaxMem=  8053063680 cpu:               4.9 elap:               0.1
 (Enter /home/share/software/programs/Gaussian/g16/l302.exe)
 NPDir=0 NMtPBC=     1 NCelOv=     1 NCel=       1 NClECP=     1 NCelD=      1
         NCelK=      1 NCelE2=     1 NClLst=     1 CellRange=     0.0.
 One-electron integrals computed using PRISM.
 One-electron integral symmetry used in STVInt
 NBasis=   808 RedAO= T EigKep=  3.96D-06  NBF=   500   308
 NBsUse=   808 1.00D-06 EigRej= -1.00D+00 NBFU=   500   308
 Leave Link  302 at Fri Jan  8 20:28:13 2021, MaxMem=  8053063680 cpu:              68.9 elap:               1.1
 (Enter /home/share/software/programs/Gaussian/g16/l303.exe)
 DipDrv:  MaxL=1.
 Leave Link  303 at Fri Jan  8 20:28:14 2021, MaxMem=  8053063680 cpu:              12.2 elap:               0.2
 (Enter /home/share/software/programs/Gaussian/g16/l401.exe)
 ExpMin= 3.22D-02 ExpMax= 6.14D+04 ExpMxC= 5.91D+02 IAcc=3 IRadAn=         5 AccDes= 0.00D+00
 Harris functional with IExCor=  205 and IRadAn=       5 diagonalized for initial guess.
 HarFok:  IExCor=  205 AccDes= 0.00D+00 IRadAn=         5 IDoV= 1 UseB2=F ITyADJ=14
 ICtDFT=  3500011 ScaDFX=  1.000000  1.000000  1.000000  1.000000
 FoFCou: FMM=F IPFlag=           0 FMFlag=      100000 FMFlg1=           0
         NFxFlg=           0 DoJE=T BraDBF=F KetDBF=T FulRan=T
         wScrn=  0.000000 ICntrl=       500 IOpCl=  0 I1Cent=   200000004 NGrid=           0
         NMat0=    1 NMatS0=      1 NMatT0=    0 NMatD0=    1 NMtDS0=    0 NMtDT0=    0
 Petite list used in FoFCou.
 Harris En= -415.471315973365    
 JPrj=0 DoOrth=F DoCkMO=F.
 Initial guess orbital symmetries:
       Occupied  (A') (A') (A') (A') (A') (A') (A') (A') (A') (A')
                 (A') (A') (A') (A') (A') (A') (A') (A') (A') (A')
                 (A") (A") (A') (A') (A') (A") (A") (A') (A') (A")
                 (A")
       Virtual   (A") (A") (A') (A') (A') (A') (A") (A') (A') (A")
                 (A') (A') (A') (A") (A') (A") (A') (A") (A') (A')
                 (A') (A') (A") (A') (A') (A') (A") (A") (A') (A')
                 (A') (A') (A") (A') (A') (A") (A') (A') (A") (A")
                 (A') (A') (A") (A') (A') (A") (A') (A') (A') (A')
                 (A") (A') (A') (A") (A') (A') (A') (A") (A') (A')
                 (A') (A") (A') (A") (A') (A") (A') (A") (A') (A')
                 (A') (A") (A') (A') (A") (A') (A') (A') (A") (A')
                 (A") (A') (A') (A') (A") (A') (A") (A') (A') (A')
                 (A') (A") (A') (A") (A') (A") (A') (A") (A') (A')
                 (A") (A") (A') (A') (A') (A") (A') (A") (A') (A")
                 (A') (A') (A') (A") (A') (A') (A') (A") (A') (A")
                 (A") (A') (A') (A') (A') (A") (A') (A') (A") (A")
                 (A') (A") (A') (A") (A') (A") (A') (A') (A') (A")
                 (A') (A') (A") (A') (A") (A') (A") (A') (A') (A')
                 (A") (A') (A") (A') (A") (A') (A") (A') (A") (A')
                 (A') (A") (A') (A') (A') (A") (A") (A') (A") (A")
                 (A') (A') (A') (A") (A') (A') (A") (A') (A') (A")
                 (A') (A") (A') (A') (A') (A") (A") (A') (A') (A')
                 (A') (A') (A") (A') (A") (A') (A') (A") (A') (A')
                 (A") (A') (A') (A') (A") (A") (A') (A") (A') (A")
                 (A") (A') (A') (A") (A") (A') (A') (A') (A') (A")
                 (A') (A") (A') (A') (A") (A') (A') (A') (A") (A')
                 (A') (A") (A') (A") (A') (A') (A') (A") (A') (A')
                 (A") (A') (A") (A') (A") (A') (A') (A") (A') (A")
                 (A') (A") (A") (A") (A') (A') (A') (A") (A') (A')
                 (A') (A") (A') (A") (A') (A") (A') (A") (A') (A')
                 (A') (A') (A') (A") (A') (A") (A') (A") (A") (A')
                 (A") (A') (A") (A') (A') (A") (A') (A") (A") (A')
                 (A") (A') (A') (A") (A") (A') (A') (A") (A') (A")
                 (A") (A') (A") (A') (A') (A") (A') (A") (A') (A')
                 (A') (A") (A') (A") (A') (A') (A") (A') (A') (A")
                 (A') (A') (A") (A') (A') (A") (A') (A") (A') (A')
                 (A") (A') (A') (A') (A") (A") (A') (A") (A') (A")
                 (A') (A") (A') (A") (A') (A') (A') (A") (A') (A")
                 (A') (A') (A") (A') (A") (A') (A') (A") (A") (A')
                 (A") (A') (A') (A") (A') (A") (A') (A') (A') (A")
                 (A') (A') (A") (A') (A") (A') (A') (A") (A') (A")
                 (A') (A") (A') (A') (A') (A") (A') (A") (A') (A')
                 (A') (A') (A") (A') (A") (A') (A') (A") (A') (A")
                 (A') (A') (A") (A') (A") (A') (A') (A") (A') (A')
                 (A") (A') (A') (A') (A') (A") (A") (A') (A") (A')
                 (A') (A") (A") (A") (A') (A') (A') (A") (A') (A")
                 (A') (A') (A") (A') (A') (A') (A") (A') (A') (A')
                 (A') (A') (A') (A') (A") (A') (A") (A') (A') (A")
                 (A') (A') (A") (A') (A") (A') (A") (A") (A') (A")
                 (A') (A') (A") (A') (A") (A') (A") (A') (A') (A")
                 (A") (A") (A') (A") (A') (A') (A") (A") (A') (A")
                 (A") (A') (A") (A') (A") (A") (A") (A') (A") (A")
                 (A') (A') (A') (A') (A') (A") (A") (A') (A") (A')
                 (A") (A') (A') (A") (A") (A') (A') (A') (A") (A')
                 (A') (A') (A") (A') (A') (A") (A") (A') (A') (A')
                 (A") (A") (A') (A') (A") (A") (A') (A') (A") (A")
                 (A') (A") (A') (A") (A') (A') (A") (A') (A") (A')
                 (A") (A") (A') (A') (A") (A') (A') (A') (A") (A')
                 (A") (A") (A') (A') (A') (A") (A') (A") (A") (A')
                 (A') (A') (A") (A") (A') (A') (A") (A') (A') (A")
                 (A') (A') (A") (A') (A') (A") (A') (A') (A") (A')
                 (A") (A') (A') (A') (A") (A') (A") (A') (A") (A")
                 (A') (A') (A") (A') (A") (A') (A") (A') (A') (A")
                 (A") (A') (A') (A') (A") (A') (A') (A') (A") (A')
                 (A") (A') (A") (A") (A') (A") (A') (A") (A") (A')
                 (A') (A') (A') (A") (A") (A') (A') (A") (A') (A")
                 (A') (A') (A') (A") (A') (A") (A') (A') (A') (A")
                 (A") (A") (A") (A') (A') (A') (A") (A') (A') (A")
                 (A") (A') (A') (A") (A') (A') (A") (A') (A') (A")
                 (A') (A") (A') (A') (A") (A') (A") (A') (A") (A')
                 (A') (A") (A') (A") (A") (A') (A') (A") (A") (A')
                 (A') (A") (A') (A") (A') (A') (A") (A') (A') (A')
                 (A") (A') (A") (A') (A") (A") (A') (A") (A') (A")
                 (A") (A') (A") (A') (A') (A") (A') (A") (A') (A')
                 (A") (A') (A") (A') (A') (A') (A') (A") (A") (A')
                 (A') (A') (A') (A') (A') (A') (A') (A") (A") (A')
                 (A') (A') (A") (A") (A") (A') (A") (A") (A') (A')
                 (A") (A") (A') (A') (A') (A') (A') (A') (A") (A')
                 (A") (A') (A') (A') (A') (A") (A") (A') (A') (A')
                 (A") (A") (A') (A') (A') (A') (A') (A') (A') (A')
                 (A') (A') (A') (A') (A') (A') (A')
 The electronic state of the initial guess is 1-A'.
 Leave Link  401 at Fri Jan  8 20:28:16 2021, MaxMem=  8053063680 cpu:             118.2 elap:               1.9
 (Enter /home/share/software/programs/Gaussian/g16/l502.exe)
 Integral symmetry usage will be decided dynamically.
 Closed shell SCF:
 Using DIIS extrapolation, IDIIS=  1040.
 NGot=  8053063680 LenX=  8050989566 LenY=  8049988566
 Requested convergence on RMS density matrix=1.00D-08 within 128 cycles.
 Requested convergence on MAX density matrix=1.00D-06.
 Requested convergence on             energy=1.00D-06.
 No special actions if energy rises.
 Fock matrices will be formed incrementally for  20 cycles.

 Cycle   1  Pass 1  IDiag  1:
 FoFJK:  IHMeth= 1 ICntrl=       0 DoSepK=F KAlg= 0 I1Cent=           0 FoldK=F
 IRaf= 900000000 NMat=       1 IRICut=       1 DoRegI=T DoRafI=F ISym2E= 1 IDoP0=0 IntGTp=1.
 FoFCou: FMM=F IPFlag=           0 FMFlag=      100000 FMFlg1=           0
         NFxFlg=           0 DoJE=F BraDBF=F KetDBF=F FulRan=T
         wScrn=  0.000000 ICntrl=         0 IOpCl=  0 I1Cent=           0 NGrid=           0
         NMat0=    1 NMatS0=      1 NMatT0=    0 NMatD0=    1 NMtDS0=    0 NMtDT0=    0
 Petite list used in FoFCou.
 E= -414.583701182201    
 DIIS: error= 2.31D-02 at cycle   1 NSaved=   1.
 NSaved= 1 IEnMin= 1 EnMin= -414.583701182201     IErMin= 1 ErrMin= 2.31D-02
 ErrMax= 2.31D-02  0.00D+00 EMaxC= 1.00D-01 BMatC= 9.89D-01 BMatP= 9.89D-01
 IDIUse=3 WtCom= 7.69D-01 WtEn= 2.31D-01
 Coeff-Com:  0.100D+01
 Coeff-En:   0.100D+01
 Coeff:      0.100D+01
 Gap=     0.382 Goal=   None    Shift=    0.000
 GapD=    0.382 DampG=1.000 DampE=0.500 DampFc=0.5000 IDamp=-1.
 Damping current iteration by 5.00D-01
 RMSDP=8.95D-04 MaxDP=1.13D-01              OVMax= 1.39D-01

 Cycle   2  Pass 1  IDiag  1:
 RMSU=  4.25D-04    CP:  9.58D-01
 E= -414.792384775744     Delta-E=       -0.208683593543 Rises=F Damp=T
 DIIS: error= 8.63D-03 at cycle   2 NSaved=   2.
 NSaved= 2 IEnMin= 2 EnMin= -414.792384775744     IErMin= 2 ErrMin= 8.63D-03
 ErrMax= 8.63D-03  0.00D+00 EMaxC= 1.00D-01 BMatC= 2.08D-01 BMatP= 9.89D-01
 IDIUse=3 WtCom= 9.14D-01 WtEn= 8.63D-02
 Coeff-Com: -0.623D+00 0.162D+01
 Coeff-En:   0.000D+00 0.100D+01
 Coeff:     -0.569D+00 0.157D+01
 Gap=     0.454 Goal=   None    Shift=    0.000
 RMSDP=4.35D-04 MaxDP=6.08D-02 DE=-2.09D-01 OVMax= 5.69D-02

 Cycle   3  Pass 1  IDiag  1:
 RMSU=  2.60D-04    CP:  9.24D-01  1.78D+00
 E= -414.976419979788     Delta-E=       -0.184035204044 Rises=F Damp=F
 DIIS: error= 3.98D-03 at cycle   3 NSaved=   3.
 NSaved= 3 IEnMin= 3 EnMin= -414.976419979788     IErMin= 3 ErrMin= 3.98D-03
 ErrMax= 3.98D-03  0.00D+00 EMaxC= 1.00D-01 BMatC= 1.22D-02 BMatP= 2.08D-01
 IDIUse=3 WtCom= 9.60D-01 WtEn= 3.98D-02
 Coeff-Com: -0.221D+00 0.410D+00 0.811D+00
 Coeff-En:   0.000D+00 0.000D+00 0.100D+01
 Coeff:     -0.212D+00 0.394D+00 0.819D+00
 Gap=     0.435 Goal=   None    Shift=    0.000
 RMSDP=7.04D-05 MaxDP=6.58D-03 DE=-1.84D-01 OVMax= 2.56D-02

 Cycle   4  Pass 1  IDiag  1:
 RMSU=  5.94D-05    CP:  9.23D-01  1.86D+00  9.46D-01
 E= -414.983897191703     Delta-E=       -0.007477211914 Rises=F Damp=F
 DIIS: error= 1.81D-03 at cycle   4 NSaved=   4.
 NSaved= 4 IEnMin= 4 EnMin= -414.983897191703     IErMin= 4 ErrMin= 1.81D-03
 ErrMax= 1.81D-03  0.00D+00 EMaxC= 1.00D-01 BMatC= 8.65D-04 BMatP= 1.22D-02
 IDIUse=3 WtCom= 9.82D-01 WtEn= 1.81D-02
 Coeff-Com: -0.445D-01 0.675D-01 0.267D+00 0.710D+00
 Coeff-En:   0.000D+00 0.000D+00 0.000D+00 0.100D+01
 Coeff:     -0.437D-01 0.663D-01 0.262D+00 0.716D+00
 Gap=     0.427 Goal=   None    Shift=    0.000
 RMSDP=2.10D-05 MaxDP=1.72D-03 DE=-7.48D-03 OVMax= 5.12D-03

 Cycle   5  Pass 1  IDiag  1:
 RMSU=  1.74D-05    CP:  9.23D-01  1.85D+00  9.79D-01  8.67D-01
 E= -414.984667773031     Delta-E=       -0.000770581328 Rises=F Damp=F
 DIIS: error= 3.65D-04 at cycle   5 NSaved=   5.
 NSaved= 5 IEnMin= 5 EnMin= -414.984667773031     IErMin= 5 ErrMin= 3.65D-04
 ErrMax= 3.65D-04  0.00D+00 EMaxC= 1.00D-01 BMatC= 3.93D-05 BMatP= 8.65D-04
 IDIUse=3 WtCom= 9.96D-01 WtEn= 3.65D-03
 Coeff-Com:  0.229D-01-0.401D-01-0.109D+00-0.993D-01 0.123D+01
 Coeff-En:   0.000D+00 0.000D+00 0.000D+00 0.000D+00 0.100D+01
 Coeff:      0.228D-01-0.400D-01-0.109D+00-0.990D-01 0.123D+01
 Gap=     0.429 Goal=   None    Shift=    0.000
 RMSDP=1.27D-05 MaxDP=1.14D-03 DE=-7.71D-04 OVMax= 5.06D-03

 Cycle   6  Pass 1  IDiag  1:
 RMSU=  5.23D-06    CP:  9.23D-01  1.85D+00  9.97D-01  9.94D-01  1.41D+00
 E= -414.984776170377     Delta-E=       -0.000108397346 Rises=F Damp=F
 DIIS: error= 9.93D-05 at cycle   6 NSaved=   6.
 NSaved= 6 IEnMin= 6 EnMin= -414.984776170377     IErMin= 6 ErrMin= 9.93D-05
 ErrMax= 9.93D-05  0.00D+00 EMaxC= 1.00D-01 BMatC= 6.34D-06 BMatP= 3.93D-05
 IDIUse=1 WtCom= 1.00D+00 WtEn= 0.00D+00
 Coeff-Com:  0.861D-02-0.142D-01-0.444D-01-0.947D-01 0.236D+00 0.908D+00
 Coeff:      0.861D-02-0.142D-01-0.444D-01-0.947D-01 0.236D+00 0.908D+00
 Gap=     0.429 Goal=   None    Shift=    0.000
 RMSDP=3.85D-06 MaxDP=2.50D-04 DE=-1.08D-04 OVMax= 1.35D-03

 Cycle   7  Pass 1  IDiag  1:
 RMSU=  1.75D-06    CP:  9.23D-01  1.85D+00  1.00D+00  1.02D+00  1.55D+00
                    CP:  1.23D+00
 E= -414.984788744879     Delta-E=       -0.000012574502 Rises=F Damp=F
 DIIS: error= 5.27D-05 at cycle   7 NSaved=   7.
 NSaved= 7 IEnMin= 7 EnMin= -414.984788744879     IErMin= 7 ErrMin= 5.27D-05
 ErrMax= 5.27D-05  0.00D+00 EMaxC= 1.00D-01 BMatC= 8.08D-07 BMatP= 6.34D-06
 IDIUse=1 WtCom= 1.00D+00 WtEn= 0.00D+00
 Coeff-Com: -0.385D-02 0.677D-02 0.206D-01 0.123D-01-0.178D+00-0.714D-01
 Coeff-Com:  0.121D+01
 Coeff:     -0.385D-02 0.677D-02 0.206D-01 0.123D-01-0.178D+00-0.714D-01
 Coeff:      0.121D+01
 Gap=     0.429 Goal=   None    Shift=    0.000
 RMSDP=1.79D-06 MaxDP=1.46D-04 DE=-1.26D-05 OVMax= 9.09D-04

 Cycle   8  Pass 1  IDiag  1:
 RMSU=  7.72D-07    CP:  9.23D-01  1.85D+00  1.00D+00  1.02D+00  1.60D+00
                    CP:  1.43D+00  1.43D+00
 E= -414.984791231988     Delta-E=       -0.000002487109 Rises=F Damp=F
 DIIS: error= 1.29D-05 at cycle   8 NSaved=   8.
 NSaved= 8 IEnMin= 8 EnMin= -414.984791231988     IErMin= 8 ErrMin= 1.29D-05
 ErrMax= 1.29D-05  0.00D+00 EMaxC= 1.00D-01 BMatC= 9.39D-08 BMatP= 8.08D-07
 IDIUse=1 WtCom= 1.00D+00 WtEn= 0.00D+00
 Coeff-Com: -0.394D-03 0.602D-03 0.231D-02 0.475D-02 0.383D-02-0.972D-01
 Coeff-Com: -0.155D+00 0.124D+01
 Coeff:     -0.394D-03 0.602D-03 0.231D-02 0.475D-02 0.383D-02-0.972D-01
 Coeff:     -0.155D+00 0.124D+01
 Gap=     0.429 Goal=   None    Shift=    0.000
 RMSDP=6.27D-07 MaxDP=4.80D-05 DE=-2.49D-06 OVMax= 2.83D-04

 Cycle   9  Pass 1  IDiag  1:
 RMSU=  2.04D-07    CP:  9.23D-01  1.85D+00  1.00D+00  1.02D+00  1.61D+00
                    CP:  1.47D+00  1.63D+00  1.47D+00
 E= -414.984791515861     Delta-E=       -0.000000283872 Rises=F Damp=F
 DIIS: error= 4.16D-06 at cycle   9 NSaved=   9.
 NSaved= 9 IEnMin= 9 EnMin= -414.984791515861     IErMin= 9 ErrMin= 4.16D-06
 ErrMax= 4.16D-06  0.00D+00 EMaxC= 1.00D-01 BMatC= 1.50D-08 BMatP= 9.39D-08
 IDIUse=1 WtCom= 1.00D+00 WtEn= 0.00D+00
 Coeff-Com:  0.309D-03-0.571D-03-0.148D-02-0.718D-03 0.209D-01-0.178D-01
 Coeff-Com: -0.167D+00 0.314D+00 0.852D+00
 Coeff:      0.309D-03-0.571D-03-0.148D-02-0.718D-03 0.209D-01-0.178D-01
 Coeff:     -0.167D+00 0.314D+00 0.852D+00
 Gap=     0.429 Goal=   None    Shift=    0.000
 RMSDP=1.56D-07 MaxDP=1.56D-05 DE=-2.84D-07 OVMax= 7.44D-05

 Cycle  10  Pass 1  IDiag  1:
 RMSU=  8.94D-08    CP:  9.23D-01  1.85D+00  1.00D+00  1.02D+00  1.62D+00
                    CP:  1.47D+00  1.66D+00  1.60D+00  1.16D+00
 E= -414.984791541147     Delta-E=       -0.000000025286 Rises=F Damp=F
 DIIS: error= 1.63D-06 at cycle  10 NSaved=  10.
 NSaved=10 IEnMin=10 EnMin= -414.984791541147     IErMin=10 ErrMin= 1.63D-06
 ErrMax= 1.63D-06  0.00D+00 EMaxC= 1.00D-01 BMatC= 2.36D-09 BMatP= 1.50D-08
 IDIUse=1 WtCom= 1.00D+00 WtEn= 0.00D+00
 Coeff-Com:  0.153D-03-0.257D-03-0.719D-03-0.149D-02 0.311D-02 0.192D-01
 Coeff-Com:  0.820D-02-0.225D+00 0.129D+00 0.107D+01
 Coeff:      0.153D-03-0.257D-03-0.719D-03-0.149D-02 0.311D-02 0.192D-01
 Coeff:      0.820D-02-0.225D+00 0.129D+00 0.107D+01
 Gap=     0.429 Goal=   None    Shift=    0.000
 RMSDP=7.61D-08 MaxDP=6.68D-06 DE=-2.53D-08 OVMax= 2.46D-05

 Cycle  11  Pass 1  IDiag  1:
 RMSU=  3.04D-08    CP:  9.23D-01  1.85D+00  1.00D+00  1.02D+00  1.62D+00
                    CP:  1.47D+00  1.66D+00  1.64D+00  1.39D+00  1.25D+00
 E= -414.984791545807     Delta-E=       -0.000000004661 Rises=F Damp=F
 DIIS: error= 5.81D-07 at cycle  11 NSaved=  11.
 NSaved=11 IEnMin=11 EnMin= -414.984791545807     IErMin=11 ErrMin= 5.81D-07
 ErrMax= 5.81D-07  0.00D+00 EMaxC= 1.00D-01 BMatC= 1.35D-10 BMatP= 2.36D-09
 IDIUse=1 WtCom= 1.00D+00 WtEn= 0.00D+00
 Coeff-Com: -0.179D-04 0.336D-04 0.126D-03-0.356D-04-0.187D-02 0.266D-02
 Coeff-Com:  0.145D-01-0.321D-01-0.723D-01 0.164D-01 0.107D+01
 Coeff:     -0.179D-04 0.336D-04 0.126D-03-0.356D-04-0.187D-02 0.266D-02
 Coeff:      0.145D-01-0.321D-01-0.723D-01 0.164D-01 0.107D+01
 Gap=     0.429 Goal=   None    Shift=    0.000
 RMSDP=1.99D-08 MaxDP=1.82D-06 DE=-4.66D-09 OVMax= 7.59D-06

 Cycle  12  Pass 1  IDiag  1:
 RMSU=  1.05D-08    CP:  9.23D-01  1.85D+00  1.00D+00  1.02D+00  1.62D+00
                    CP:  1.47D+00  1.66D+00  1.64D+00  1.42D+00  1.35D+00
                    CP:  1.31D+00
 E= -414.984791546128     Delta-E=       -0.000000000320 Rises=F Damp=F
 DIIS: error= 2.03D-07 at cycle  12 NSaved=  12.
 NSaved=12 IEnMin=12 EnMin= -414.984791546128     IErMin=12 ErrMin= 2.03D-07
 ErrMax= 2.03D-07  0.00D+00 EMaxC= 1.00D-01 BMatC= 1.78D-11 BMatP= 1.35D-10
 IDIUse=1 WtCom= 1.00D+00 WtEn= 0.00D+00
 Coeff-Com: -0.167D-04 0.283D-04 0.941D-04 0.147D-03-0.599D-03-0.140D-02
 Coeff-Com:  0.854D-03 0.202D-01-0.258D-01-0.117D+00 0.188D+00 0.935D+00
 Coeff:     -0.167D-04 0.283D-04 0.941D-04 0.147D-03-0.599D-03-0.140D-02
 Coeff:      0.854D-03 0.202D-01-0.258D-01-0.117D+00 0.188D+00 0.935D+00
 Gap=     0.429 Goal=   None    Shift=    0.000
 RMSDP=6.66D-09 MaxDP=4.83D-07 DE=-3.20D-10 OVMax= 1.87D-06

 SCF Done:  E(RHF) =  -414.984791546     A.U. after   12 cycles
            NFock= 12  Conv=0.67D-08     -V/T= 2.0010
 KE= 4.145588448711D+02 PE=-1.719944222487D+03 EE= 5.178233323933D+02
 Leave Link  502 at Fri Jan  8 20:31:43 2021, MaxMem=  8053063680 cpu:           13249.2 elap:             207.2
 (Enter /home/share/software/programs/Gaussian/g16/l801.exe)
 ExpMin= 3.22D-02 ExpMax= 6.14D+04 ExpMxC= 5.91D+02 IAcc=3 IRadAn=         5 AccDes= 0.00D+00
 HarFok:  IExCor=  205 AccDes= 0.00D+00 IRadAn=         5 IDoV=-2 UseB2=F ITyADJ=14
 ICtDFT= 12500011 ScaDFX=  1.000000  1.000000  1.000000  1.000000
 DSYEVD-2 returned Info=        2663 IAlg= 4 N=    71 NDim=    71 NE2=   113395124 trying  DSYEV.
 DSYEVD-2 returned Info=        2663 IAlg= 4 N=    71 NDim=    71 NE2=   113395124 trying  DSYEV.
 DSYEVD-2 returned Info=        2663 IAlg= 4 N=    71 NDim=    71 NE2=   113395124 trying  DSYEV.
 DSYEVD-2 returned Info=        2663 IAlg= 4 N=    71 NDim=    71 NE2=   113395124 trying  DSYEV.
 DSYEVD-2 returned Info=        2663 IAlg= 4 N=    71 NDim=    71 NE2=   113395124 trying  DSYEV.
 DSYEVD-2 returned Info=        2663 IAlg= 4 N=    71 NDim=    71 NE2=   113395124 trying  DSYEV.
 DSYEVD-2 returned Info=        2663 IAlg= 4 N=    71 NDim=    71 NE2=   113395124 trying  DSYEV.
 DSYEVD-2 returned Info=        2663 IAlg= 4 N=    71 NDim=    71 NE2=   113395124 trying  DSYEV.
 Largest valence mixing into a core orbital is  1.85D-04
 Largest core mixing into a valence orbital is  2.89D-05
 Range of M.O.s used for correlation:     9   808
 NBasis=   808 NAE=    31 NBE=    31 NFC=     8 NFV=     0
 NROrb=    800 NOA=    23 NOB=    23 NVA=   777 NVB=   777

 **** Warning!!: The largest alpha MO coefficient is  0.87801324D+02

 Leave Link  801 at Fri Jan  8 20:31:45 2021, MaxMem=  8053063680 cpu:              40.5 elap:               0.8
 (Enter /home/share/software/programs/Gaussian/g16/l906.exe)
 FulOut=F Deriv=F AODrv=F NAtomX=    16
   MMem=           6  MDisk=          23 MDiskD=          23
  W3Min=    17871000 MinDsk=    22436267 NBas6D=        1000
 NBas2D=      503692    NTT=      500500    LW2=     4508827
    MDV=  8049586074 MDiskM=       17883 NBas2p=      382015
 Disk-based method using OVN memory for 23 occupieds at a time.
 Estimated scratch disk usage= 22290602481 words.
 IMap=   1   2   3   4   5   6   7   8   9  10  11  12  13  14  15  16  17  18  19  20
 IMap=  21  22  23
 Actual    scratch disk usage= 20481415665 words.
 JobTyp=1 Pass  1:  I=   1 to  23 NPSUse= 64 ParTrn=T ParDer=T DoDerP=F.
 Spin components of T(2) and E(2):
     alpha-alpha T2 =       0.5787777107D-01 E2=     -0.2003762705D+00
     alpha-beta  T2 =       0.3241793176D+00 E2=     -0.1242714325D+01
     beta-beta   T2 =       0.5787777107D-01 E2=     -0.2003762705D+00
 The integrals were generated   1 times.
 ANorm=    0.1199972858D+01
 E2 =    -0.1643466866D+01 EUMP2 =    -0.41662825841165D+03
 Leave Link  906 at Fri Jan  8 20:59:55 2021, MaxMem=  8053063680 cpu:          107177.4 elap:            1689.1
 (Enter /home/share/software/programs/Gaussian/g16/l601.exe)
 Copying SCF densities to generalized density rwf, IOpCl= 0 IROHF=0.

 **********************************************************************

            Population analysis using the SCF Density.

 **********************************************************************

 Orbital symmetries:
       Occupied  (A') (A') (A') (A') (A') (A') (A') (A') (A') (A')
                 (A') (A') (A') (A') (A') (A') (A') (A') (A') (A")
                 (A') (A") (A') (A') (A") (A') (A") (A') (A") (A')
                 (A")
       Virtual   (A') (A') (A') (A") (A') (A') (A") (A') (A') (A")
                 (A') (A") (A') (A") (A') (A') (A") (A') (A") (A')
                 (A') (A') (A") (A') (A') (A') (A") (A') (A') (A")
                 (A') (A") (A') (A') (A') (A") (A') (A") (A') (A")
                 (A') (A') (A') (A') (A") (A") (A') (A") (A') (A')
                 (A') (A') (A") (A") (A') (A') (A') (A') (A") (A')
                 (A') (A') (A") (A') (A') (A") (A') (A") (A') (A')
                 (A') (A") (A') (A') (A") (A') (A') (A") (A') (A")
                 (A') (A') (A") (A') (A') (A") (A') (A') (A") (A')
                 (A") (A') (A') (A') (A") (A') (A") (A') (A') (A")
                 (A') (A") (A') (A') (A") (A') (A') (A") (A') (A")
                 (A') (A') (A') (A") (A') (A") (A') (A') (A") (A')
                 (A') (A') (A') (A") (A') (A") (A') (A') (A") (A')
                 (A") (A') (A') (A") (A") (A') (A") (A') (A') (A')
                 (A") (A') (A") (A') (A') (A") (A') (A') (A") (A')
                 (A') (A") (A') (A") (A") (A') (A') (A') (A") (A")
                 (A') (A') (A") (A') (A') (A") (A") (A') (A') (A')
                 (A") (A') (A") (A") (A') (A') (A') (A") (A') (A")
                 (A') (A") (A') (A') (A') (A") (A') (A") (A') (A')
                 (A') (A') (A") (A') (A') (A") (A') (A") (A') (A')
                 (A") (A") (A') (A') (A") (A') (A") (A') (A") (A')
                 (A') (A') (A") (A") (A') (A') (A') (A") (A') (A')
                 (A") (A") (A') (A') (A') (A") (A') (A') (A") (A')
                 (A') (A') (A") (A') (A') (A") (A') (A") (A') (A')
                 (A") (A') (A') (A") (A') (A') (A") (A') (A") (A")
                 (A') (A") (A") (A') (A") (A') (A") (A') (A') (A')
                 (A") (A') (A') (A') (A") (A") (A') (A") (A') (A')
                 (A') (A') (A') (A") (A') (A') (A") (A") (A') (A")
                 (A") (A') (A") (A') (A') (A") (A") (A') (A") (A')
                 (A") (A') (A") (A') (A") (A') (A") (A") (A') (A')
                 (A") (A') (A") (A') (A") (A') (A') (A') (A") (A')
                 (A") (A') (A") (A') (A") (A') (A') (A") (A') (A')
                 (A') (A") (A') (A') (A') (A") (A") (A') (A') (A')
                 (A") (A') (A') (A") (A') (A") (A') (A') (A") (A")
                 (A") (A') (A") (A') (A') (A') (A') (A") (A') (A")
                 (A') (A') (A") (A') (A") (A') (A") (A') (A") (A")
                 (A') (A') (A") (A') (A') (A') (A") (A') (A') (A")
                 (A') (A") (A') (A') (A") (A') (A') (A") (A') (A")
                 (A') (A') (A") (A') (A') (A") (A') (A") (A') (A')
                 (A') (A") (A') (A') (A") (A') (A') (A') (A") (A')
                 (A') (A") (A") (A') (A") (A') (A') (A') (A") (A")
                 (A') (A') (A') (A") (A') (A') (A") (A') (A') (A')
                 (A") (A') (A") (A") (A") (A') (A') (A") (A') (A")
                 (A') (A') (A") (A') (A') (A") (A') (A') (A') (A')
                 (A') (A') (A') (A') (A") (A") (A') (A') (A') (A")
                 (A') (A") (A') (A") (A') (A") (A') (A") (A') (A")
                 (A') (A") (A') (A') (A") (A") (A') (A') (A") (A')
                 (A") (A") (A") (A') (A') (A") (A") (A') (A") (A')
                 (A") (A') (A') (A") (A") (A') (A") (A') (A") (A")
                 (A") (A') (A') (A") (A") (A') (A') (A") (A') (A")
                 (A') (A') (A") (A') (A") (A') (A') (A") (A') (A')
                 (A') (A') (A') (A") (A') (A") (A") (A') (A') (A')
                 (A") (A') (A") (A") (A') (A") (A') (A') (A") (A")
                 (A') (A") (A") (A') (A') (A") (A") (A') (A') (A')
                 (A") (A') (A") (A') (A") (A') (A") (A') (A") (A')
                 (A') (A") (A') (A") (A') (A') (A") (A') (A") (A')
                 (A') (A") (A') (A") (A') (A') (A") (A') (A") (A')
                 (A') (A") (A') (A") (A') (A') (A') (A") (A') (A')
                 (A") (A') (A") (A') (A') (A') (A") (A') (A") (A')
                 (A') (A") (A") (A") (A') (A") (A') (A') (A") (A')
                 (A") (A') (A') (A') (A') (A") (A') (A') (A") (A")
                 (A') (A') (A") (A") (A') (A") (A') (A") (A') (A")
                 (A') (A") (A') (A') (A') (A") (A') (A") (A') (A')
                 (A") (A') (A') (A") (A') (A") (A") (A') (A') (A')
                 (A") (A") (A") (A') (A') (A") (A') (A') (A") (A')
                 (A') (A") (A') (A") (A") (A') (A') (A") (A') (A')
                 (A') (A") (A') (A") (A') (A") (A') (A') (A') (A")
                 (A") (A') (A") (A') (A') (A") (A') (A') (A') (A")
                 (A") (A") (A") (A') (A') (A') (A") (A') (A') (A')
                 (A") (A') (A") (A') (A') (A") (A') (A") (A") (A")
                 (A") (A') (A') (A') (A") (A') (A") (A') (A") (A')
                 (A") (A") (A') (A') (A') (A') (A') (A") (A") (A')
                 (A') (A') (A') (A') (A') (A') (A') (A") (A") (A')
                 (A") (A') (A') (A") (A") (A') (A') (A') (A") (A")
                 (A') (A') (A") (A") (A') (A') (A') (A') (A') (A')
                 (A") (A') (A") (A") (A") (A') (A') (A') (A') (A')
                 (A") (A") (A') (A') (A') (A') (A') (A') (A') (A')
                 (A') (A') (A') (A') (A') (A') (A')
 The electronic state is 1-A'.
 Alpha  occ. eigenvalues --  -20.53701 -20.50994 -15.59965 -15.58255 -11.36981
 Alpha  occ. eigenvalues --  -11.34566 -11.28453 -11.23262  -1.40526  -1.37745
 Alpha  occ. eigenvalues --   -1.23719  -1.23249  -1.03270  -0.96960  -0.82197
 Alpha  occ. eigenvalues --   -0.79925  -0.75314  -0.69228  -0.66771  -0.66652
 Alpha  occ. eigenvalues --   -0.65000  -0.60667  -0.59848  -0.57196  -0.56051
 Alpha  occ. eigenvalues --   -0.55606  -0.50242  -0.45078  -0.43700  -0.42264
 Alpha  occ. eigenvalues --   -0.39549
 Alpha virt. eigenvalues --    0.03381   0.04115   0.05209   0.05780   0.06523
 Alpha virt. eigenvalues --    0.07313   0.07652   0.08542   0.09190   0.09403
 Alpha virt. eigenvalues --    0.10302   0.11100   0.11563   0.12730   0.13462
 Alpha virt. eigenvalues --    0.14532   0.15309   0.15628   0.16425   0.16640
 Alpha virt. eigenvalues --    0.17405   0.17823   0.18238   0.18373   0.19246
 Alpha virt. eigenvalues --    0.20456   0.21146   0.21279   0.21632   0.22683
 Alpha virt. eigenvalues --    0.23062   0.23839   0.23959   0.24641   0.26221
 Alpha virt. eigenvalues --    0.26431   0.26748   0.27453   0.27783   0.28168
 Alpha virt. eigenvalues --    0.29590   0.30407   0.30779   0.31338   0.31401
 Alpha virt. eigenvalues --    0.31959   0.32760   0.34465   0.35326   0.35386
 Alpha virt. eigenvalues --    0.36360   0.37081   0.37231   0.39164   0.39315
 Alpha virt. eigenvalues --    0.39856   0.41040   0.41686   0.41744   0.42981
 Alpha virt. eigenvalues --    0.43776   0.44048   0.45290   0.45923   0.46350
 Alpha virt. eigenvalues --    0.46463   0.47841   0.48509   0.48847   0.50088
 Alpha virt. eigenvalues --    0.50330   0.50731   0.51921   0.52279   0.53046
 Alpha virt. eigenvalues --    0.53314   0.54505   0.54719   0.55591   0.56035
 Alpha virt. eigenvalues --    0.56931   0.58100   0.59466   0.60221   0.60630
 Alpha virt. eigenvalues --    0.61569   0.62060   0.62675   0.64365   0.64559
 Alpha virt. eigenvalues --    0.65164   0.65489   0.66537   0.66946   0.67539
 Alpha virt. eigenvalues --    0.67805   0.68193   0.69143   0.70492   0.72479
 Alpha virt. eigenvalues --    0.72755   0.73272   0.73720   0.75133   0.76292
 Alpha virt. eigenvalues --    0.76835   0.78298   0.78380   0.79864   0.80261
 Alpha virt. eigenvalues --    0.80360   0.83015   0.83399   0.83901   0.84942
 Alpha virt. eigenvalues --    0.86539   0.87863   0.88752   0.89456   0.89498
 Alpha virt. eigenvalues --    0.90201   0.91246   0.91602   0.92371   0.95645
 Alpha virt. eigenvalues --    0.95826   0.96527   0.97792   0.97983   0.98050
 Alpha virt. eigenvalues --    0.98803   0.99101   1.00241   1.01248   1.01632
 Alpha virt. eigenvalues --    1.02145   1.02699   1.03469   1.03763   1.05536
 Alpha virt. eigenvalues --    1.05779   1.06771   1.07413   1.08611   1.09192
 Alpha virt. eigenvalues --    1.09713   1.11379   1.12022   1.12534   1.15004
 Alpha virt. eigenvalues --    1.16472   1.16601   1.16635   1.17112   1.19362
 Alpha virt. eigenvalues --    1.19971   1.20676   1.21044   1.21410   1.21739
 Alpha virt. eigenvalues --    1.21915   1.23497   1.24052   1.25465   1.26439
 Alpha virt. eigenvalues --    1.29179   1.29568   1.29743   1.31294   1.31962
 Alpha virt. eigenvalues --    1.32285   1.32538   1.32983   1.33717   1.34544
 Alpha virt. eigenvalues --    1.35439   1.36339   1.36351   1.39328   1.40380
 Alpha virt. eigenvalues --    1.41375   1.41628   1.42686   1.45504   1.45778
 Alpha virt. eigenvalues --    1.47019   1.47304   1.47372   1.49787   1.51319
 Alpha virt. eigenvalues --    1.52930   1.55237   1.56292   1.57703   1.59098
 Alpha virt. eigenvalues --    1.59784   1.61170   1.63512   1.64404   1.66124
 Alpha virt. eigenvalues --    1.66392   1.69588   1.69681   1.70679   1.70973
 Alpha virt. eigenvalues --    1.71741   1.73140   1.73474   1.74020   1.74816
 Alpha virt. eigenvalues --    1.75474   1.76420   1.77096   1.79707   1.81861
 Alpha virt. eigenvalues --    1.82477   1.83225   1.83607   1.84401   1.84848
 Alpha virt. eigenvalues --    1.85694   1.87788   1.87912   1.90287   1.91767
 Alpha virt. eigenvalues --    1.91874   1.93061   1.95536   1.96155   1.96201
 Alpha virt. eigenvalues --    1.98059   1.99284   2.00584   2.00843   2.01732
 Alpha virt. eigenvalues --    2.02694   2.03910   2.05081   2.06104   2.07955
 Alpha virt. eigenvalues --    2.09289   2.09499   2.11552   2.11701   2.13806
 Alpha virt. eigenvalues --    2.14483   2.15388   2.16450   2.17293   2.18845
 Alpha virt. eigenvalues --    2.21414   2.22692   2.23332   2.24896   2.26131
 Alpha virt. eigenvalues --    2.27064   2.27769   2.28872   2.30524   2.32787
 Alpha virt. eigenvalues --    2.34808   2.35654   2.36383   2.38997   2.39114
 Alpha virt. eigenvalues --    2.40701   2.40732   2.44301   2.44486   2.45598
 Alpha virt. eigenvalues --    2.48366   2.49379   2.51462   2.52812   2.54033
 Alpha virt. eigenvalues --    2.55836   2.56247   2.56662   2.58498   2.59010
 Alpha virt. eigenvalues --    2.61119   2.62845   2.63603   2.65359   2.65679
 Alpha virt. eigenvalues --    2.67271   2.68501   2.69787   2.70203   2.71199
 Alpha virt. eigenvalues --    2.72988   2.75055   2.76666   2.76809   2.77087
 Alpha virt. eigenvalues --    2.79592   2.80546   2.81908   2.82221   2.84024
 Alpha virt. eigenvalues --    2.84231   2.84960   2.85059   2.87795   2.89688
 Alpha virt. eigenvalues --    2.90604   2.92916   2.93636   2.94681   2.95375
 Alpha virt. eigenvalues --    2.96506   2.96727   2.98284   2.98682   2.99535
 Alpha virt. eigenvalues --    3.01906   3.03266   3.04058   3.06034   3.07003
 Alpha virt. eigenvalues --    3.07874   3.10490   3.12795   3.13038   3.16201
 Alpha virt. eigenvalues --    3.16800   3.17899   3.18179   3.19282   3.21525
 Alpha virt. eigenvalues --    3.21594   3.23749   3.25575   3.26451   3.28001
 Alpha virt. eigenvalues --    3.28944   3.33158   3.33355   3.34711   3.36505
 Alpha virt. eigenvalues --    3.37769   3.38737   3.40223   3.40534   3.41723
 Alpha virt. eigenvalues --    3.42494   3.43687   3.45571   3.48004   3.49261
 Alpha virt. eigenvalues --    3.50218   3.51338   3.52553   3.54183   3.54711
 Alpha virt. eigenvalues --    3.57941   3.58137   3.58996   3.61453   3.62177
 Alpha virt. eigenvalues --    3.63672   3.66315   3.67407   3.68870   3.71176
 Alpha virt. eigenvalues --    3.72895   3.74277   3.76413   3.77002   3.78045
 Alpha virt. eigenvalues --    3.80790   3.83390   3.84101   3.85062   3.89412
 Alpha virt. eigenvalues --    3.89896   3.93078   3.93562   3.94825   3.97982
 Alpha virt. eigenvalues --    3.99155   4.02684   4.03169   4.03727   4.05347
 Alpha virt. eigenvalues --    4.07307   4.07914   4.09001   4.11330   4.13271
 Alpha virt. eigenvalues --    4.14959   4.15787   4.17627   4.18411   4.19817
 Alpha virt. eigenvalues --    4.22742   4.25143   4.27224   4.28977   4.29268
 Alpha virt. eigenvalues --    4.30199   4.30664   4.33373   4.34521   4.35137
 Alpha virt. eigenvalues --    4.39568   4.41142   4.43050   4.44440   4.46963
 Alpha virt. eigenvalues --    4.48719   4.54677   4.55895   4.59552   4.60668
 Alpha virt. eigenvalues --    4.62519   4.63686   4.64250   4.66227   4.71391
 Alpha virt. eigenvalues --    4.72385   4.76837   4.79068   4.80551   4.82400
 Alpha virt. eigenvalues --    4.84102   4.87494   4.87692   4.92608   4.93751
 Alpha virt. eigenvalues --    4.97430   5.02002   5.03605   5.06695   5.08821
 Alpha virt. eigenvalues --    5.09033   5.13309   5.15613   5.16340   5.18925
 Alpha virt. eigenvalues --    5.22146   5.30009   5.32798   5.46059   5.50975
 Alpha virt. eigenvalues --    5.53700   5.55487   5.63918   5.67644   5.68221
 Alpha virt. eigenvalues --    5.75734   5.79064   5.80716   5.83466   5.83881
 Alpha virt. eigenvalues --    5.85716   5.88912   5.91401   5.96509   6.00448
 Alpha virt. eigenvalues --    6.01970   6.04500   6.05241   6.08020   6.08748
 Alpha virt. eigenvalues --    6.11043   6.12866   6.14173   6.17188   6.18250
 Alpha virt. eigenvalues --    6.18579   6.23029   6.24328   6.25236   6.25972
 Alpha virt. eigenvalues --    6.26956   6.28466   6.29024   6.29838   6.32479
 Alpha virt. eigenvalues --    6.33873   6.35174   6.38557   6.41025   6.42427
 Alpha virt. eigenvalues --    6.43445   6.44482   6.44758   6.45491   6.49292
 Alpha virt. eigenvalues --    6.51681   6.54600   6.56706   6.58267   6.59460
 Alpha virt. eigenvalues --    6.59648   6.61437   6.62604   6.63432   6.64768
 Alpha virt. eigenvalues --    6.67384   6.69569   6.71555   6.71563   6.75370
 Alpha virt. eigenvalues --    6.76674   6.78390   6.78632   6.79030   6.82220
 Alpha virt. eigenvalues --    6.84071   6.85149   6.86695   6.88585   6.91612
 Alpha virt. eigenvalues --    6.93747   6.95372   6.97101   6.99277   7.02847
 Alpha virt. eigenvalues --    7.04434   7.08067   7.09982   7.11222   7.12040
 Alpha virt. eigenvalues --    7.15312   7.16485   7.18024   7.19867   7.22223
 Alpha virt. eigenvalues --    7.25781   7.26125   7.26981   7.30850   7.32225
 Alpha virt. eigenvalues --    7.34635   7.37192   7.38100   7.39117   7.40735
 Alpha virt. eigenvalues --    7.42661   7.46450   7.47887   7.49949   7.50954
 Alpha virt. eigenvalues --    7.53549   7.56209   7.56950   7.59385   7.59811
 Alpha virt. eigenvalues --    7.63195   7.64954   7.70609   7.70923   7.74389
 Alpha virt. eigenvalues --    7.75878   7.77013   7.78753   7.82123   7.82441
 Alpha virt. eigenvalues --    7.83053   7.84744   7.85855   7.89321   7.89707
 Alpha virt. eigenvalues --    7.90829   7.94859   7.97896   7.99672   8.00663
 Alpha virt. eigenvalues --    8.01403   8.06759   8.07647   8.08140   8.09381
 Alpha virt. eigenvalues --    8.11242   8.13129   8.14346   8.14496   8.18362
 Alpha virt. eigenvalues --    8.20761   8.22216   8.23329   8.25497   8.27980
 Alpha virt. eigenvalues --    8.30841   8.34454   8.36116   8.36627   8.37553
 Alpha virt. eigenvalues --    8.40852   8.42391   8.43818   8.45628   8.45770
 Alpha virt. eigenvalues --    8.47279   8.47818   8.52193   8.52415   8.53574
 Alpha virt. eigenvalues --    8.54902   8.56356   8.61605   8.62212   8.64549
 Alpha virt. eigenvalues --    8.66020   8.67656   8.68850   8.69149   8.72635
 Alpha virt. eigenvalues --    8.72967   8.76334   8.79171   8.81183   8.82768
 Alpha virt. eigenvalues --    8.82820   8.85380   8.87951   8.88257   8.90918
 Alpha virt. eigenvalues --    8.91262   8.92028   8.93171   8.97308   8.99774
 Alpha virt. eigenvalues --    9.01118   9.01239   9.02103   9.06156   9.06567
 Alpha virt. eigenvalues --    9.11303   9.12474   9.14064   9.19709   9.19791
 Alpha virt. eigenvalues --    9.22714   9.23459   9.23494   9.27649   9.29362
 Alpha virt. eigenvalues --    9.30657   9.32539   9.35896   9.36710   9.37452
 Alpha virt. eigenvalues --    9.38812   9.40291   9.41123   9.41483   9.41892
 Alpha virt. eigenvalues --    9.43548   9.44639   9.45542   9.47892   9.48558
 Alpha virt. eigenvalues --    9.48564   9.51161   9.51363   9.53744   9.56481
 Alpha virt. eigenvalues --    9.57942   9.61389   9.63712   9.66312   9.67321
 Alpha virt. eigenvalues --    9.71518   9.72322   9.74196   9.75262   9.76984
 Alpha virt. eigenvalues --    9.79743   9.82761   9.85212   9.85970   9.88167
 Alpha virt. eigenvalues --    9.92209   9.94180   9.98894  10.04099  10.05695
 Alpha virt. eigenvalues --   10.06643  10.16783  10.22589  10.23279  10.27914
 Alpha virt. eigenvalues --   10.28908  10.35898  10.36131  10.39622  10.47837
 Alpha virt. eigenvalues --   10.49619  10.52065  10.58631  10.60841  10.64752
 Alpha virt. eigenvalues --   10.67805  10.68429  10.68973  10.74969  10.80092
 Alpha virt. eigenvalues --   10.81968  10.82186  10.84970  10.87347  10.91226
 Alpha virt. eigenvalues --   10.93230  10.93418  10.95333  10.97419  10.99537
 Alpha virt. eigenvalues --   11.00792  11.09023  11.16782  11.22216  11.33705
 Alpha virt. eigenvalues --   11.39178  11.40800  11.47041  11.49401  11.54348
 Alpha virt. eigenvalues --   11.64225  11.75012  11.77813  11.94671  12.00582
 Alpha virt. eigenvalues --   12.05447  12.06809  12.08614  12.09562  12.09598
 Alpha virt. eigenvalues --   12.15246  12.15540  12.17439  12.17457  12.19777
 Alpha virt. eigenvalues --   12.24284  12.31731  12.34537  12.34891  12.38495
 Alpha virt. eigenvalues --   12.42118  12.54110  12.55051  12.56951  12.60665
 Alpha virt. eigenvalues --   12.67868  12.73807  12.78889  12.87942  13.01376
 Alpha virt. eigenvalues --   13.03768  13.04761  13.08400  13.09616  13.12296
 Alpha virt. eigenvalues --   13.16322  13.27041  13.30465  13.68766  13.71151
 Alpha virt. eigenvalues --   13.92312  13.94352  14.30717  14.36182  14.61966
 Alpha virt. eigenvalues --   14.83019  14.84176  14.94041  15.05919  25.56113
 Alpha virt. eigenvalues --   25.61525  27.13708  27.43847  34.85177  35.28567
 Alpha virt. eigenvalues --   43.62952  43.79448
          Condensed to atoms (all electrons):
               1          2          3          4          5          6
     1  C    5.125595   0.344466  -0.152506   0.012299   0.006755   0.014384
     2  C    0.344466   4.580563   0.400235  -0.027738  -0.061239   0.298320
     3  N   -0.152506   0.400235   6.671858   0.393276   0.436572  -0.093787
     4  H    0.012299  -0.027738   0.393276   0.413356  -0.032543   0.002367
     5  H    0.006755  -0.061239   0.436572  -0.032543   0.405919  -0.006348
     6  O    0.014384   0.298320  -0.093787   0.002367  -0.006348   8.531201
     7  N    0.199477  -0.089312   0.022956   0.000367   0.001760  -0.046540
     8  C   -0.109164  -0.051500   0.004147  -0.000537  -0.000061   0.001191
     9  O    0.022819  -0.003579   0.000299   0.000181  -0.000086  -0.000216
    10  H   -0.029835  -0.010965  -0.000526  -0.000081   0.000038   0.019971
    11  C    0.006273  -0.002303   0.000000   0.000013   0.000017   0.000358
    12  H    0.000834   0.000721  -0.000050  -0.000000   0.000001  -0.000575
    13  H   -0.000415  -0.000037  -0.000009   0.000000  -0.000000  -0.000017
    14  H   -0.000415  -0.000037  -0.000009   0.000000  -0.000000  -0.000017
    15  H    0.445905  -0.037190  -0.006922  -0.000721   0.000155   0.002818
    16  H    0.445905  -0.037190  -0.006922  -0.000721   0.000155   0.002818
               7          8          9         10         11         12
     1  C    0.199477  -0.109164   0.022819  -0.029835   0.006273   0.000834
     2  C   -0.089312  -0.051500  -0.003579  -0.010965  -0.002303   0.000721
     3  N    0.022956   0.004147   0.000299  -0.000526   0.000000  -0.000050
     4  H    0.000367  -0.000537   0.000181  -0.000081   0.000013  -0.000000
     5  H    0.001760  -0.000061  -0.000086   0.000038   0.000017   0.000001
     6  O   -0.046540   0.001191  -0.000216   0.019971   0.000358  -0.000575
     7  N    6.856904   0.153543  -0.050347   0.373798  -0.123274   0.006593
     8  C    0.153543   4.843083   0.330542  -0.016148   0.274997  -0.047150
     9  O   -0.050347   0.330542   8.459983   0.002581  -0.034538   0.005996
    10  H    0.373798  -0.016148   0.002581   0.410569   0.000757   0.000757
    11  C   -0.123274   0.274997  -0.034538   0.000757   5.158485   0.449408
    12  H    0.006593  -0.047150   0.005996   0.000757   0.449408   0.436064
    13  H   -0.002015  -0.025684  -0.012234   0.000125   0.434571  -0.013004
    14  H   -0.002015  -0.025684  -0.012234   0.000125   0.434571  -0.013004
    15  H   -0.050952   0.002172   0.004391   0.003104   0.000345  -0.000022
    16  H   -0.050952   0.002172   0.004391   0.003104   0.000345  -0.000022
              13         14         15         16
     1  C   -0.000415  -0.000415   0.445905   0.445905
     2  C   -0.000037  -0.000037  -0.037190  -0.037190
     3  N   -0.000009  -0.000009  -0.006922  -0.006922
     4  H    0.000000   0.000000  -0.000721  -0.000721
     5  H   -0.000000  -0.000000   0.000155   0.000155
     6  O   -0.000017  -0.000017   0.002818   0.002818
     7  N   -0.002015  -0.002015  -0.050952  -0.050952
     8  C   -0.025684  -0.025684   0.002172   0.002172
     9  O   -0.012234  -0.012234   0.004391   0.004391
    10  H    0.000125   0.000125   0.003104   0.003104
    11  C    0.434571   0.434571   0.000345   0.000345
    12  H   -0.013004  -0.013004  -0.000022  -0.000022
    13  H    0.394131  -0.003786  -0.000007   0.000018
    14  H   -0.003786   0.394131   0.000018  -0.000007
    15  H   -0.000007   0.000018   0.364497   0.011496
    16  H    0.000018  -0.000007   0.011496   0.364497
 Mulliken charges:
               1
     1  C   -0.332377
     2  C    0.696784
     3  N   -0.668612
     4  H    0.240482
     5  H    0.248902
     6  O   -0.725927
     7  N   -0.199990
     8  C    0.664081
     9  O   -0.717948
    10  H    0.242624
    11  C   -0.600027
    12  H    0.173453
    13  H    0.228363
    14  H    0.228363
    15  H    0.260914
    16  H    0.260914
 Sum of Mulliken charges =  -0.00000
 Mulliken charges with hydrogens summed into heavy atoms:
               1
     1  C    0.189451
     2  C    0.696784
     3  N   -0.179228
     6  O   -0.725927
     7  N    0.042634
     8  C    0.664081
     9  O   -0.717948
    11  C    0.030152
 Electronic spatial extent (au):  <R**2>=           1282.5544
 Charge=             -0.0000 electrons
 Dipole moment (field-independent basis, Debye):
    X=             -1.0455    Y=             -2.3085    Z=              0.0000  Tot=              2.5342
 Quadrupole moment (field-independent basis, Debye-Ang):
   XX=            -64.1947   YY=            -28.8774   ZZ=            -47.8754
   XY=             -4.1916   XZ=             -0.0000   YZ=              0.0000
 Traceless Quadrupole moment (field-independent basis, Debye-Ang):
   XX=            -17.2122   YY=             18.1051   ZZ=             -0.8929
   XY=             -4.1916   XZ=             -0.0000   YZ=              0.0000
 Octapole moment (field-independent basis, Debye-Ang**2):
  XXX=            -14.9198  YYY=            -39.3219  ZZZ=              0.0000  XYY=            -10.9967
  XXY=            -13.8668  XXZ=             -0.0000  XZZ=              1.9290  YZZ=              1.8564
  YYZ=              0.0000  XYZ=              0.0000
 Hexadecapole moment (field-independent basis, Debye-Ang**3):
 XXXX=           -604.1888 YYYY=           -839.1900 ZZZZ=            -58.6510 XXXY=           -245.3218
 XXXZ=             -0.0000 YYYX=           -147.8172 YYYZ=             -0.0000 ZZZX=             -0.0000
 ZZZY=             -0.0000 XXYY=           -236.8937 XXZZ=            -92.3688 YYZZ=           -193.1607
 XXYZ=              0.0000 YYXZ=             -0.0000 ZZXY=            -69.3742
 N-N= 3.725772536764D+02 E-N=-1.719944224593D+03  KE= 4.145588448711D+02
 Symmetry A'   KE= 3.968434070628D+02
 Symmetry A"   KE= 1.771543780827D+01
 Leave Link  601 at Fri Jan  8 21:06:15 2021, MaxMem=  8053063680 cpu:             109.9 elap:              13.4
 (Enter /home/share/software/programs/Gaussian/g16/l9999.exe)
 Unable to Open any file for archive entry.
 1\1\GINC-CU39\SP\RMP2-FC\Jun-CC-pVQZ\C4H8N2O2\ROOT\08-Jan-2021\0\\#p M
 P2/jun-cc-pvqz\\SP\\0,1\C,0,0.,0.,0.\C,0,0.,0.,1.5153717\N,0,1.2264517
 1,0.,2.08561166\H,0,2.06333899,0.,1.53452398\H,0,1.2930503,0.,3.086866
 7\O,0,-1.03134652,0.,2.16293882\N,0,-1.35879372,0.,-0.46184612\C,0,-1.
 63502314,0.,-1.78579934\O,0,-0.74253159,0.,-2.62242355\H,0,-2.07784583
 ,0.,0.24356157\C,0,-3.09421459,0.,-2.1606124\H,0,-3.75202502,0.,-1.294
 32707\H,0,-3.29389342,0.87986854,-2.76815589\H,0,-3.29389342,-0.879868
 54,-2.76815589\H,0,0.52969825,-0.87728376,-0.37941831\H,0,0.52969825,0
 .87728376,-0.37941831\\Version=ES64L-G16RevC.01\State=1-A'\HF=-414.984
 7915\MP2=-416.6282584\RMSD=6.655e-09\PG=CS [SG(C4H4N2O2),X(H4)]\\@
 The archive entry for this job was punched.


 THE REAL VOYAGE OF DISCOVERY CONSISTS NOT IN SEEKING NEW LANDSCAPES 
 BUT IN HAVING NEW EYES.
                                                    -- MARCEL PROUST
 Job cpu time:       1 days  9 hours 34 minutes  8.8 seconds.
 Elapsed time:       0 days  0 hours 31 minutes 55.4 seconds.
 File lengths (MBytes):  RWF= 156615 Int=      0 D2E=      0 Chk=     44 Scr=      2
 Normal termination of Gaussian 16 at Fri Jan  8 21:06:27 2021.
