 Entering Gaussian System, Link 0=g16
 Input=c7_HF-jun-cc-pV5Z.gjf
 Output=c7_HF-jun-cc-pV5Z.log
 Initial command:
 /data2/software/Gaussian/g16_c01-gpu/g16/l1.exe "/home/shuchong/scratch/Gau-442.inp" -scrdir="/home/shuchong/scratch/"
 Entering Link 1 = /data2/software/Gaussian/g16_c01-gpu/g16/l1.exe PID=       443.
  
 Copyright (c) 1988-2019, Gaussian, Inc.  All Rights Reserved.
  
 This is part of the Gaussian(R) 16 program.  It is based on
 the Gaussian(R) 09 system (copyright 2009, Gaussian, Inc.),
 the Gaussian(R) 03 system (copyright 2003, Gaussian, Inc.),
 the Gaussian(R) 98 system (copyright 1998, Gaussian, Inc.),
 the Gaussian(R) 94 system (copyright 1995, Gaussian, Inc.),
 the Gaussian 92(TM) system (copyright 1992, Gaussian, Inc.),
 the Gaussian 90(TM) system (copyright 1990, Gaussian, Inc.),
 the Gaussian 88(TM) system (copyright 1988, Gaussian, Inc.),
 the Gaussian 86(TM) system (copyright 1986, Carnegie Mellon
 University), and the Gaussian 82(TM) system (copyright 1983,
 Carnegie Mellon University). Gaussian is a federally registered
 trademark of Gaussian, Inc.
  
 This software contains proprietary and confidential information,
 including trade secrets, belonging to Gaussian, Inc.
  
 This software is provided under written license and may be
 used, copied, transmitted, or stored only in accord with that
 written license.
  
 The following legend is applicable only to US Government
 contracts under FAR:
  
                    RESTRICTED RIGHTS LEGEND
  
 Use, reproduction and disclosure by the US Government is
 subject to restrictions as set forth in subparagraphs (a)
 and (c) of the Commercial Computer Software - Restricted
 Rights clause in FAR 52.227-19.
  
 Gaussian, Inc.
 340 Quinnipiac St., Bldg. 40, Wallingford CT 06492
  
  
 ---------------------------------------------------------------
 Warning -- This program may not be used in any manner that
 competes with the business of Gaussian, Inc. or will provide
 assistance to any competitor of Gaussian, Inc.  The licensee
 of this program is prohibited from giving any competitor of
 Gaussian, Inc. access to this program.  By using this program,
 the user acknowledges that Gaussian, Inc. is engaged in the
 business of creating and licensing software in the field of
 computational chemistry and represents and warrants to the
 licensee that it is not a competitor of Gaussian, Inc. and that
 it will not use this program in any manner prohibited above.
 ---------------------------------------------------------------
  

 Cite this work as:
 Gaussian 16, Revision C.01,
 M. J. Frisch, G. W. Trucks, H. B. Schlegel, G. E. Scuseria, 
 M. A. Robb, J. R. Cheeseman, G. Scalmani, V. Barone, 
 G. A. Petersson, H. Nakatsuji, X. Li, M. Caricato, A. V. Marenich, 
 J. Bloino, B. G. Janesko, R. Gomperts, B. Mennucci, H. P. Hratchian, 
 J. V. Ortiz, A. F. Izmaylov, J. L. Sonnenberg, D. Williams-Young, 
 F. Ding, F. Lipparini, F. Egidi, J. Goings, B. Peng, A. Petrone, 
 T. Henderson, D. Ranasinghe, V. G. Zakrzewski, J. Gao, N. Rega, 
 G. Zheng, W. Liang, M. Hada, M. Ehara, K. Toyota, R. Fukuda, 
 J. Hasegawa, M. Ishida, T. Nakajima, Y. Honda, O. Kitao, H. Nakai, 
 T. Vreven, K. Throssell, J. A. Montgomery, Jr., J. E. Peralta, 
 F. Ogliaro, M. J. Bearpark, J. J. Heyd, E. N. Brothers, K. N. Kudin, 
 V. N. Staroverov, T. A. Keith, R. Kobayashi, J. Normand, 
 K. Raghavachari, A. P. Rendell, J. C. Burant, S. S. Iyengar, 
 J. Tomasi, M. Cossi, J. M. Millam, M. Klene, C. Adamo, R. Cammi, 
 J. W. Ochterski, R. L. Martin, K. Morokuma, O. Farkas, 
 J. B. Foresman, and D. J. Fox, Gaussian, Inc., Wallingford CT, 2019.
 
 ******************************************
 Gaussian 16:  AM64L-G16RevC.01  3-Jul-2019
                28-Jan-2021 
 ******************************************
 %nprocshared=16
 Will use up to   16 processors via shared memory.
 %mem=60GB
 %chk=c7_HF-jun-cc-pV5Z.chk
 -----------------
 #p HF/jun-cc-pv5z
 -----------------
 1/38=1,172=1/1;
 2/12=2,17=6,18=5,40=1/2;
 3/5=16,6=3,7=60,11=9,25=1,30=1/1,2,3;
 4//1;
 5/5=2,38=5/2;
 6/7=2,8=2,9=2,10=2,28=1/1;
 99/5=1,9=1/99;
 Leave Link    1 at Thu Jan 28 22:04:38 2021, MaxMem=  8053063680 cpu:               1.5 elap:               0.1
 (Enter /data2/software/Gaussian/g16_c01-gpu/g16/l101.exe)
 --
 SP
 --
 Symbolic Z-matrix:
 Charge =  0 Multiplicity = 1
 C
 C                    1    B1
 N                    2    B2       1    A1
 H                    3    B3       2    A2       1    D1       0
 H                    3    B4       2    A3       1    D2       0
 O                    2    B5       1    A4       3    D3       0
 N                    1    B6       2    A5       6    D4       0
 C                    7    B7       1    A6       2    D5       0
 O                    8    B8       7    A7       1    D6       0
 H                    7    B9       1    A8       2    D7       0
 C                    8    B10      7    A9       1    D8       0
 H                    11   B11      8    A10      7    D9       0
 H                    11   B12      8    A11      7    D10      0
 H                    11   B13      8    A12      7    D11      0
 H                    1    B14      7    A13      8    D12      0
 H                    1    B15      7    A14      8    D13      0
       Variables:
  B1                    1.52634                  
  B2                    1.34921                  
  B3                    1.00902                  
  B4                    1.00344                  
  B5                    1.2179                   
  B6                    1.44986                  
  B7                    1.35232                  
  B8                    1.22569                  
  B9                    1.00292                  
  B10                   1.5044                   
  B11                   1.08712                  
  B12                   1.08754                  
  B13                   1.08812                  
  B14                   1.09019                  
  B15                   1.0851                   
  A1                  114.3825                   
  A2                  120.2705                   
  A3                  118.43258                  
  A4                  121.57778                  
  A5                  113.06464                  
  A6                  122.18944                  
  A7                  121.48595                  
  A8                  118.69578                  
  A9                  116.45356                  
  A10                 108.46917                  
  A11                 112.98447                  
  A12                 108.38476                  
  A13                 108.79568                  
  A14                 108.24431                  
  D1                    0.                       
  D2                  180.                       
  D3                 -180.                       
  D4                 -115.75675                  
  D5                  -82.0997                   
  D6                    0.                       
  D7                   97.9003                   
  D8                  180.                       
  D9                  127.12351                  
  D10                   5.35418                  
  D11                -115.85307                  
  D12                  38.88665                  
  D13                 157.99001                  
 
 ITRead=  0  0  0  0  0  0  0  0  0  0  0  0  0  0  0  0
 MicOpt= -1 -1 -1 -1 -1 -1 -1 -1 -1 -1 -1 -1 -1 -1 -1 -1
 NAtoms=     16 NQM=       16 NQMF=       0 NMMI=      0 NMMIF=      0
                NMic=       0 NMicF=      0.
                    Isotopes and Nuclear Properties:
 (Nuclear quadrupole moments (NQMom) in fm**2, nuclear magnetic moments (NMagM)
  in nuclear magnetons)

  Atom         1           2           3           4           5           6           7           8           9          10
 IAtWgt=          12          12          14           1           1          16          14          12          16           1
 AtmWgt=  12.0000000  12.0000000  14.0030740   1.0078250   1.0078250  15.9949146  14.0030740  12.0000000  15.9949146   1.0078250
 NucSpn=           0           0           2           1           1           0           2           0           0           1
 AtZEff=  -0.0000000  -0.0000000  -0.0000000  -0.0000000  -0.0000000  -0.0000000  -0.0000000  -0.0000000  -0.0000000  -0.0000000
 NQMom=    0.0000000   0.0000000   2.0440000   0.0000000   0.0000000   0.0000000   2.0440000   0.0000000   0.0000000   0.0000000
 NMagM=    0.0000000   0.0000000   0.4037610   2.7928460   2.7928460   0.0000000   0.4037610   0.0000000   0.0000000   2.7928460
 AtZNuc=   6.0000000   6.0000000   7.0000000   1.0000000   1.0000000   8.0000000   7.0000000   6.0000000   8.0000000   1.0000000

  Atom        11          12          13          14          15          16
 IAtWgt=          12           1           1           1           1           1
 AtmWgt=  12.0000000   1.0078250   1.0078250   1.0078250   1.0078250   1.0078250
 NucSpn=           0           1           1           1           1           1
 AtZEff=  -0.0000000  -0.0000000  -0.0000000  -0.0000000  -0.0000000  -0.0000000
 NQMom=    0.0000000   0.0000000   0.0000000   0.0000000   0.0000000   0.0000000
 NMagM=    0.0000000   2.7928460   2.7928460   2.7928460   2.7928460   2.7928460
 AtZNuc=   6.0000000   1.0000000   1.0000000   1.0000000   1.0000000   1.0000000
 Leave Link  101 at Thu Jan 28 22:04:38 2021, MaxMem=  8053063680 cpu:               2.1 elap:               0.2
 (Enter /data2/software/Gaussian/g16_c01-gpu/g16/l202.exe)
                          Input orientation:                          
 ---------------------------------------------------------------------
 Center     Atomic      Atomic             Coordinates (Angstroms)
 Number     Number       Type             X           Y           Z
 ---------------------------------------------------------------------
      1          6           0        0.000000    0.000000    0.000000
      2          6           0        0.000000    0.000000    1.526345
      3          7           0        1.228873    0.000000    2.083334
      4          1           0        2.051897    0.000000    1.499586
      5          1           0        1.299744    0.000000    3.084265
      6          8           0       -1.037562    0.000000    2.164103
      7          7           0        0.579675   -1.201428   -0.568010
      8          6           0        1.915452   -1.361296   -0.705513
      9          8           0        2.703889   -0.491309   -0.353641
     10          1           0       -0.033195   -1.936475   -0.867926
     11          6           0        2.376273   -2.659102   -1.310954
     12          1           0        3.036654   -2.434802   -2.144869
     13          1           0        1.554302   -3.283476   -1.653400
     14          1           0        2.951209   -3.201608   -0.563203
     15          1           0        0.565970    0.863022   -0.351252
     16          1           0       -1.027849    0.074643   -0.339713
 ---------------------------------------------------------------------
                    Distance matrix (angstroms):
                    1          2          3          4          5
     1  C    0.000000
     2  C    1.526345   0.000000
     3  N    2.418762   1.349209   0.000000
     4  H    2.541464   2.052072   1.009025   0.000000
     5  H    3.346943   2.028904   1.003437   1.754122   0.000000
     6  O    2.399974   1.217896   2.267873   3.160117   2.511911
     7  N    1.449858   2.483098   2.982367   2.808171   3.911655
     8  C    2.453535   3.240876   3.178394   2.595035   4.073653
     9  O    2.770823   3.329676   2.890658   2.025075   3.745959
    10  H    2.122341   3.079541   3.748691   3.701710   4.598530
    11  C    3.799487   4.557166   4.461899   3.882677   5.248590
    12  H    4.444096   5.350452   5.203271   4.492222   6.024032
    13  H    3.991341   4.827820   4.985007   4.579316   5.769877
    14  H    4.390573   4.829715   4.496765   3.913331   5.126564
    15  H    1.090186   2.142545   2.666731   2.525547   3.617459
    16  H    1.085104   2.131717   3.312027   3.587956   4.140880
                    6          7          8          9         10
     6  O    0.000000
     7  N    3.394602   0.000000
     8  C    4.336832   1.352319   0.000000
     9  O    4.536394   2.250002   1.225693   0.000000
    10  H    3.735222   1.002922   2.038243   3.137614   0.000000
    11  C    5.549875   2.429927   1.504399   2.392302   2.554212
    12  H    6.410517   3.169297   2.116897   2.663906   3.361976
    13  H    5.663241   2.542222   2.173406   3.287418   2.225203
    14  H    5.796446   3.102405   2.116552   2.729616   3.255777
    15  H    3.105339   2.075843   2.625679   2.530793   2.909146
    16  H    2.504947   2.065093   3.295262   3.774435   2.304982
                   11         12         13         14         15
    11  C    0.000000
    12  H    1.087119   0.000000
    13  H    1.087542   1.777401   0.000000
    14  H    1.088115   1.759818   1.773860   0.000000
    15  H    4.074749   4.494105   4.457110   4.717574   0.000000
    16  H    4.472663   5.106475   4.435114   5.159135   1.778183
                   16
    16  H    0.000000
 Stoichiometry    C4H8N2O2
 Framework group  C1[X(C4H8N2O2)]
 Deg. of freedom    42
 Full point group                 C1      NOp   1
 Largest Abelian subgroup         C1      NOp   1
 Largest concise Abelian subgroup C1      NOp   1
                         Standard orientation:                         
 ---------------------------------------------------------------------
 Center     Atomic      Atomic             Coordinates (Angstroms)
 Number     Number       Type             X           Y           Z
 ---------------------------------------------------------------------
      1          6           0        0.701219   -0.783335    0.755990
      2          6           0        1.725702   -0.000592   -0.061003
      3          7           0        1.388546    1.285127   -0.292560
      4          1           0        0.520546    1.655563    0.064487
      5          1           0        2.019366    1.856102   -0.824481
      6          8           0        2.754081   -0.517926   -0.458583
      7          7           0       -0.572151   -0.931257    0.078689
      8          6           0       -1.511384    0.041617    0.089899
      9          8           0       -1.328240    1.101504    0.677624
     10          1           0       -0.759472   -1.784736   -0.413587
     11          6           0       -2.785771   -0.248570   -0.655048
     12          1           0       -3.623642   -0.077479    0.016166
     13          1           0       -2.829370   -1.263780   -1.042597
     14          1           0       -2.867922    0.454505   -1.481446
     15          1           0        0.537913   -0.266976    1.702147
     16          1           0        1.102489   -1.773630    0.945059
 ---------------------------------------------------------------------
 Rotational constants (GHZ):           4.4565412           1.2288674           1.0964577
 Leave Link  202 at Thu Jan 28 22:04:38 2021, MaxMem=  8053063680 cpu:               0.4 elap:               0.0
 (Enter /data2/software/Gaussian/g16_c01-gpu/g16/l301.exe)
 Standard basis: Jun-CC-pV5Z (5D, 7F)
 Ernie: Thresh=  0.10000D-02 Tol=  0.10000D-05 Strict=F.
 Ernie:  32 primitive shells out of 520 were deleted.
 There are  1848 symmetry adapted cartesian basis functions of A   symmetry.
 There are  1368 symmetry adapted basis functions of A   symmetry.
  1368 basis functions,  2056 primitive gaussians,  1848 cartesian basis functions
    31 alpha electrons       31 beta electrons
       nuclear repulsion energy       383.0793440445 Hartrees.
 IExCor=    0 DFT=F Ex=HF Corr=None ExCW=0 ScaHFX=  1.000000
 ScaDFX=  1.000000  1.000000  1.000000  1.000000 ScalE2=  1.000000  1.000000
 IRadAn=      5 IRanWt=     -1 IRanGd=            0 ICorTp=0 IEmpDi=  4
 NAtoms=   16 NActive=   16 NUniq=   16 SFac= 1.00D+00 NAtFMM=   60 NAOKFM=F Big=F
 Integral buffers will be    131072 words long.
 Raffenetti 1 integral format.
 Two-electron integral symmetry is turned on.
 Leave Link  301 at Thu Jan 28 22:04:38 2021, MaxMem=  8053063680 cpu:               0.7 elap:               0.1
 (Enter /data2/software/Gaussian/g16_c01-gpu/g16/l302.exe)
 NPDir=0 NMtPBC=     1 NCelOv=     1 NCel=       1 NClECP=     1 NCelD=      1
         NCelK=      1 NCelE2=     1 NClLst=     1 CellRange=     0.0.
 One-electron integrals computed using PRISM.
 One-electron integral symmetry used in STVInt
 NBasis=  1368 RedAO= T EigKep=  1.75D-06  NBF=  1368
 NBsUse=  1366 1.00D-06 EigRej=  7.21D-07 NBFU=  1366
 Leave Link  302 at Thu Jan 28 22:04:44 2021, MaxMem=  8053063680 cpu:              97.1 elap:               6.1
 (Enter /data2/software/Gaussian/g16_c01-gpu/g16/l303.exe)
 DipDrv:  MaxL=1.
 Leave Link  303 at Thu Jan 28 22:04:45 2021, MaxMem=  8053063680 cpu:               5.9 elap:               0.5
 (Enter /data2/software/Gaussian/g16_c01-gpu/g16/l401.exe)
 ExpMin= 2.72D-02 ExpMax= 1.64D+05 ExpMxC= 5.16D+02 IAcc=3 IRadAn=         5 AccDes= 0.00D+00
 Harris functional with IExCor=  205 and IRadAn=       5 diagonalized for initial guess.
 HarFok:  IExCor=  205 AccDes= 0.00D+00 IRadAn=         5 IDoV= 1 UseB2=F ITyADJ=14
 ICtDFT=  3500011 ScaDFX=  1.000000  1.000000  1.000000  1.000000
 FoFCou: FMM=F IPFlag=           0 FMFlag=      100000 FMFlg1=           0
         NFxFlg=           0 DoJE=T BraDBF=F KetDBF=T FulRan=T
         wScrn=  0.000000 ICntrl=       500 IOpCl=  0 I1Cent=   200000004 NGrid=           0
         NMat0=    1 NMatS0=      1 NMatT0=    0 NMatD0=    1 NMtDS0=    0 NMtDT0=    0
 Petite list used in FoFCou.
 Harris En= -415.481882502626    
 JPrj=0 DoOrth=F DoCkMO=F.
 Leave Link  401 at Thu Jan 28 22:04:58 2021, MaxMem=  8053063680 cpu:             209.4 elap:              13.2
 (Enter /data2/software/Gaussian/g16_c01-gpu/g16/l502.exe)
 Integral symmetry usage will be decided dynamically.
 Closed shell SCF:
 Using DIIS extrapolation, IDIIS=  1040.
 NGot=  8053063680 LenX=  8046190090 LenY=  8042773138
 Requested convergence on RMS density matrix=1.00D-08 within 128 cycles.
 Requested convergence on MAX density matrix=1.00D-06.
 Requested convergence on             energy=1.00D-06.
 No special actions if energy rises.
 Fock matrices will be formed incrementally for  20 cycles.

 Cycle   1  Pass 1  IDiag  1:
 FoFJK:  IHMeth= 1 ICntrl=       0 DoSepK=F KAlg= 0 I1Cent=           0 FoldK=F
 IRaf= 900000000 NMat=       1 IRICut=       1 DoRegI=T DoRafI=F ISym2E= 0 IDoP0=0 IntGTp=1.
 FoFCou: FMM=F IPFlag=           0 FMFlag=      100000 FMFlg1=           0
         NFxFlg=           0 DoJE=F BraDBF=F KetDBF=F FulRan=T
         wScrn=  0.000000 ICntrl=         0 IOpCl=  0 I1Cent=           0 NGrid=           0
         NMat0=    1 NMatS0=      1 NMatT0=    0 NMatD0=    1 NMtDS0=    0 NMtDT0=    0
 Symmetry not used in FoFCou.
 E= -414.588740759086    
 DIIS: error= 1.67D-02 at cycle   1 NSaved=   1.
 NSaved= 1 IEnMin= 1 EnMin= -414.588740759086     IErMin= 1 ErrMin= 1.67D-02
 ErrMax= 1.67D-02  0.00D+00 EMaxC= 1.00D-01 BMatC= 1.00D+00 BMatP= 1.00D+00
 IDIUse=3 WtCom= 8.33D-01 WtEn= 1.67D-01
 Coeff-Com:  0.100D+01
 Coeff-En:   0.100D+01
 Coeff:      0.100D+01
 Gap=     0.559 Goal=   None    Shift=    0.000
 GapD=    0.559 DampG=2.000 DampE=0.500 DampFc=1.0000 IDamp=-1.
 RMSDP=4.13D-04 MaxDP=6.19D-02              OVMax= 1.32D-01

 Cycle   2  Pass 1  IDiag  1:
 RMSU=  3.91D-04    CP:  9.20D-01
 E= -414.913139953478     Delta-E=       -0.324399194391 Rises=F Damp=F
 DIIS: error= 6.66D-03 at cycle   2 NSaved=   2.
 NSaved= 2 IEnMin= 2 EnMin= -414.913139953478     IErMin= 2 ErrMin= 6.66D-03
 ErrMax= 6.66D-03  0.00D+00 EMaxC= 1.00D-01 BMatC= 1.15D-01 BMatP= 1.00D+00
 IDIUse=3 WtCom= 9.33D-01 WtEn= 6.66D-02
 Coeff-Com:  0.173D+00 0.827D+00
 Coeff-En:   0.000D+00 0.100D+01
 Coeff:      0.161D+00 0.839D+00
 Gap=     0.473 Goal=   None    Shift=    0.000
 RMSDP=1.15D-04 MaxDP=2.28D-02 DE=-3.24D-01 OVMax= 5.73D-02

 Cycle   3  Pass 1  IDiag  1:
 RMSU=  1.04D-04    CP:  9.32D-01  8.86D-01
 E= -414.977268568498     Delta-E=       -0.064128615020 Rises=F Damp=F
 DIIS: error= 2.18D-03 at cycle   3 NSaved=   3.
 NSaved= 3 IEnMin= 3 EnMin= -414.977268568498     IErMin= 3 ErrMin= 2.18D-03
 ErrMax= 2.18D-03  0.00D+00 EMaxC= 1.00D-01 BMatC= 1.82D-02 BMatP= 1.15D-01
 IDIUse=3 WtCom= 9.78D-01 WtEn= 2.18D-02
 Coeff-Com: -0.204D-01 0.256D+00 0.765D+00
 Coeff-En:   0.000D+00 0.000D+00 0.100D+01
 Coeff:     -0.199D-01 0.250D+00 0.770D+00
 Gap=     0.432 Goal=   None    Shift=    0.000
 RMSDP=3.33D-05 MaxDP=6.06D-03 DE=-6.41D-02 OVMax= 2.48D-02

 Cycle   4  Pass 1  IDiag  1:
 RMSU=  2.49D-05    CP:  9.30D-01  9.25D-01  8.51D-01
 E= -414.988173219245     Delta-E=       -0.010904650748 Rises=F Damp=F
 DIIS: error= 8.00D-04 at cycle   4 NSaved=   4.
 NSaved= 4 IEnMin= 4 EnMin= -414.988173219245     IErMin= 4 ErrMin= 8.00D-04
 ErrMax= 8.00D-04  0.00D+00 EMaxC= 1.00D-01 BMatC= 8.28D-04 BMatP= 1.82D-02
 IDIUse=3 WtCom= 9.92D-01 WtEn= 8.00D-03
 Coeff-Com: -0.116D-01 0.523D-01 0.246D+00 0.713D+00
 Coeff-En:   0.000D+00 0.000D+00 0.000D+00 0.100D+01
 Coeff:     -0.115D-01 0.519D-01 0.244D+00 0.715D+00
 Gap=     0.422 Goal=   None    Shift=    0.000
 RMSDP=8.91D-06 MaxDP=1.02D-03 DE=-1.09D-02 OVMax= 4.57D-03

 Cycle   5  Pass 1  IDiag  1:
 RMSU=  7.57D-06    CP:  9.29D-01  9.27D-01  8.86D-01  8.88D-01
 E= -414.988916722283     Delta-E=       -0.000743503037 Rises=F Damp=F
 DIIS: error= 2.06D-04 at cycle   5 NSaved=   5.
 NSaved= 5 IEnMin= 5 EnMin= -414.988916722283     IErMin= 5 ErrMin= 2.06D-04
 ErrMax= 2.06D-04  0.00D+00 EMaxC= 1.00D-01 BMatC= 4.11D-05 BMatP= 8.28D-04
 IDIUse=3 WtCom= 9.98D-01 WtEn= 2.06D-03
 Coeff-Com:  0.257D-02-0.234D-01-0.873D-01-0.562D-01 0.116D+01
 Coeff-En:   0.000D+00 0.000D+00 0.000D+00 0.000D+00 0.100D+01
 Coeff:      0.257D-02-0.233D-01-0.871D-01-0.561D-01 0.116D+01
 Gap=     0.423 Goal=   None    Shift=    0.000
 RMSDP=4.87D-06 MaxDP=3.23D-04 DE=-7.44D-04 OVMax= 4.44D-03

 Cycle   6  Pass 1  IDiag  1:
 RMSU=  2.19D-06    CP:  9.29D-01  9.27D-01  9.00D-01  1.01D+00  1.35D+00
 E= -414.989022945079     Delta-E=       -0.000106222796 Rises=F Damp=F
 DIIS: error= 6.55D-05 at cycle   6 NSaved=   6.
 NSaved= 6 IEnMin= 6 EnMin= -414.989022945079     IErMin= 6 ErrMin= 6.55D-05
 ErrMax= 6.55D-05  0.00D+00 EMaxC= 1.00D-01 BMatC= 7.19D-06 BMatP= 4.11D-05
 IDIUse=1 WtCom= 1.00D+00 WtEn= 0.00D+00
 Coeff-Com:  0.157D-02-0.973D-02-0.384D-01-0.925D-01 0.199D+00 0.940D+00
 Coeff:      0.157D-02-0.973D-02-0.384D-01-0.925D-01 0.199D+00 0.940D+00
 Gap=     0.423 Goal=   None    Shift=    0.000
 RMSDP=1.78D-06 MaxDP=1.74D-04 DE=-1.06D-04 OVMax= 1.54D-03

 Cycle   7  Pass 1  IDiag  1:
 RMSU=  9.09D-07    CP:  9.29D-01  9.26D-01  9.05D-01  1.04D+00  1.49D+00
                    CP:  1.28D+00
 E= -414.989038189092     Delta-E=       -0.000015244013 Rises=F Damp=F
 DIIS: error= 2.98D-05 at cycle   7 NSaved=   7.
 NSaved= 7 IEnMin= 7 EnMin= -414.989038189092     IErMin= 7 ErrMin= 2.98D-05
 ErrMax= 2.98D-05  0.00D+00 EMaxC= 1.00D-01 BMatC= 9.36D-07 BMatP= 7.19D-06
 IDIUse=1 WtCom= 1.00D+00 WtEn= 0.00D+00
 Coeff-Com: -0.338D-03 0.324D-02 0.143D-01 0.105D-02-0.150D+00-0.299D-01
 Coeff-Com:  0.116D+01
 Coeff:     -0.338D-03 0.324D-02 0.143D-01 0.105D-02-0.150D+00-0.299D-01
 Coeff:      0.116D+01
 Gap=     0.423 Goal=   None    Shift=    0.000
 RMSDP=8.50D-07 MaxDP=6.44D-05 DE=-1.52D-05 OVMax= 9.03D-04

 Cycle   8  Pass 1  IDiag  1:
 RMSU=  2.84D-07    CP:  9.29D-01  9.26D-01  9.06D-01  1.05D+00  1.54D+00
                    CP:  1.54D+00  1.40D+00
 E= -414.989041105863     Delta-E=       -0.000002916770 Rises=F Damp=F
 DIIS: error= 1.01D-05 at cycle   8 NSaved=   8.
 NSaved= 8 IEnMin= 8 EnMin= -414.989041105863     IErMin= 8 ErrMin= 1.01D-05
 ErrMax= 1.01D-05  0.00D+00 EMaxC= 1.00D-01 BMatC= 1.25D-07 BMatP= 9.36D-07
 IDIUse=1 WtCom= 1.00D+00 WtEn= 0.00D+00
 Coeff-Com: -0.170D-03 0.105D-02 0.413D-02 0.767D-02-0.907D-02-0.124D+00
 Coeff-Com: -0.848D-01 0.121D+01
 Coeff:     -0.170D-03 0.105D-02 0.413D-02 0.767D-02-0.907D-02-0.124D+00
 Coeff:     -0.848D-01 0.121D+01
 Gap=     0.423 Goal=   None    Shift=    0.000
 RMSDP=3.36D-07 MaxDP=2.47D-05 DE=-2.92D-06 OVMax= 3.09D-04

 Cycle   9  Pass 1  IDiag  1:
 RMSU=  1.03D-07    CP:  9.29D-01  9.26D-01  9.07D-01  1.05D+00  1.56D+00
                    CP:  1.62D+00  1.62D+00  1.46D+00
 E E= -414.989041490874     Delta-E=       -0.000000385045 Rises=F Damp= D DIIS: error= 3.41D-06 at cycle   9 NSaved=   9 N NSaved= 9 IEnMin= 9 EnMin= -414.989041490874     IErMin= 9 ErrMin= 3.41D-06
 ErrMax= 3.41D-06  0.00D+00 EMaxC= 1.00D-01 BMatC= 1.69D-08 BMatP= 1.25D-07
 IDIUse=1 WtCom= 1.00D+00 WtEn= 0.00D+00
 Coeff-Com:  0.999D-05-0.197D-03-0.896D-03 0.429D-03 0.188D-01-0.194D-01
 Coeff-Com: -0.153D+00 0.218D+00 0.936D+00
 Coeff:      0.999D-05-0.197D-03-0.896D-03 0.429D-03 0.188D-01-0.194D-01
 Coeff:     -0.153D+00 0.218D+00 0.936D+00
 Gap=     0.423 Goal=   None    Shift=    0.00 R RMSDP=8.55D-08 MaxDP=8.47D-06 DE=-3.85D-07 OVMax= 8.87D-05

 Cycle  10  Pass 1  IDiag  1:
 RMSU=  4.04D-08    CP:  9.29D-01  9.26D-01  9.07D-01  1.05D+00  1.56D+00
                    CP:  1.63D+00  1.65D+00  1.64D+00  1.22D+0 E= -414.989041524465     Delta-E=       -0.000000033589 Rises=F Damp=F
 DIIS: error= 1.17D-06 at cycle  10 NSaved=  10.
 NSaved=10 IEnMin=10 EnMin= -414.989041524465     IErMin=10 ErrMin= 1.17D-06
 ErrMax= 1.17D-06  0.00D+00 EMaxC= 1.00D-01 BMatC= 2.75D-09 BMatP= 1.69D-08
 IDIUse=1 WtCom= 1.00D+00 WtEn= 0.00D+00
 Coeff-Com:  0.283D-04-0.213D-03-0.765D-03-0.146D-02 0.522D-02 0.164D-01
 Coeff-Com: -0.137D-01-0.151D+00 0.166D+00 0.980D+00
 Coeff:      0.283D-04-0.213D-03-0.765D-03-0.146D-02 0.522D-02 0.164D-01
 Coeff:     -0.137D-01-0.151D+00 0.166D+00 0.980D+00
 Gap=     0.423 Goal=   None    Shift=    0.000
 RMSDP=3.22D-08 MaxDP=3.59D-06 DE=-3.36D-08 OVMax= 2.16D-05

 Cycle  11  Pass 1  IDiag  1:
 RMSU=  1.57D-08    CP:  9.29D-01  9.26D-01  9.07D-01  1.05D+00  1.56D+00
                    CP:  1.63D+00  1.66D+00  1.69D+00  1.41D+00  1.22D+00
 E= -414.989041529595     Delta-E=       -0.000000005130 Rises=F Damp=F
 DIIS: error= 5.30D-07 at cycle  11 NSaved=  11.
 NSaved=11 IEnMin=11 EnMin= -414.989041529595     IErMin=11 ErrMin= 5.30D-07
 ErrMax= 5.30D-07  0.00D+00 EMaxC= 1.00D-01 BMatC= 3.26D-10 BMatP= 2.75D-09
 IDIUse=1 WtCom= 1.00D+00 WtEn= 0.00D+00
 Coeff-Com:  0.182D-05-0.346D-05 0.637D-04-0.312D-03-0.217D-02 0.481D-02
 Coeff-Com:  0.200D-01-0.455D-01-0.128D+00 0.112D+00 0.104D+01
 Coeff:      0.182D-05-0.346D-05 0.637D-04-0.312D-03-0.217D-02 0.481D-02
 Coeff:      0.200D-01-0.455D-01-0.128D+00 0.112D+00 0.104D+01
 Gap=     0.423 Goal=   None    Shift=    0.000
 RMSDP=1.25D-08 MaxDP=1.30D-06 DE=-5.13D-09 OVMax= 7.95D-06

 Cycle  12  Pass 1  IDiag  1:
 RMSU=  6.08D-09    CP:  9.29D-01  9.26D-01  9.07D-01  1.05D+00  1.56D+00
                    CP:  1.64D+00  1.66D+00  1.70D+00  1.45D+00  1.39D+00
                    CP:  1.29D+00
 E= -414.989041530280     Delta-E=       -0.000000000685 Rises=F Damp=F
 DIIS: error= 1.29D-07 at cycle  12 NSaved=  12.
 NSaved=12 IEnMin=12 EnMin= -414.989041530280     IErMin=12 ErrMin= 1.29D-07
 ErrMax= 1.29D-07  0.00D+00 EMaxC= 1.00D-01 BMatC= 2.73D-11 BMatP= 3.26D-10
 IDIUse=1 WtCom= 1.00D+00 WtEn= 0.00D+00
 Coeff-Com: -0.212D-05 0.168D-04 0.752D-04 0.105D-03-0.615D-03-0.972D-03
 Coeff-Com:  0.219D-02 0.134D-01-0.299D-01-0.934D-01 0.992D-01 0.101D+01
 Coeff:     -0.212D-05 0.168D-04 0.752D-04 0.105D-03-0.615D-03-0.972D-03
 Coeff:      0.219D-02 0.134D-01-0.299D-01-0.934D-01 0.992D-01 0.101D+01
 Gap=     0.423 Goal=   None    Shift=    0.000
 RMSDP=3.63D-09 MaxDP=3.16D-07 DE=-6.85D-10 OVMax= 2.73D-06

 SCF Done:  E(RHF) =  -414.989041530     A.U. after   12 cycles
            NFock= 12  Conv=0.36D-08     -V/T= 2.0009
 KE= 4.146022632603D+02 PE=-1.740909243348D+03 EE= 5.282385945131D+02
 Leave Link  502 at Fri Jan 29 01:20:45 2021, MaxMem=  8053063680 cpu:          187998.0 elap:           11746.7
 (Enter /data2/software/Gaussian/g16_c01-gpu/g16/l601.exe)
 Copying SCF densities to generalized density rwf, IOpCl= 0 IROHF=0.

 **********************************************************************

            Population analysis using the SCF Density.

 **********************************************************************

 Orbital symmetries:
       Occupied  (A) (A) (A) (A) (A) (A) (A) (A) (A) (A) (A) (A)
                 (A) (A) (A) (A) (A) (A) (A) (A) (A) (A) (A) (A)
                 (A) (A) (A) (A) (A) (A) (A)
       Virtual   (A) (A) (A) (A) (A) (A) (A) (A) (A) (A) (A) (A)
                 (A) (A) (A) (A) (A) (A) (A) (A) (A) (A) (A) (A)
                 (A) (A) (A) (A) (A) (A) (A) (A) (A) (A) (A) (A)
                 (A) (A) (A) (A) (A) (A) (A) (A) (A) (A) (A) (A)
                 (A) (A) (A) (A) (A) (A) (A) (A) (A) (A) (A) (A)
                 (A) (A) (A) (A) (A) (A) (A) (A) (A) (A) (A) (A)
                 (A) (A) (A) (A) (A) (A) (A) (A) (A) (A) (A) (A)
                 (A) (A) (A) (A) (A) (A) (A) (A) (A) (A) (A) (A)
                 (A) (A) (A) (A) (A) (A) (A) (A) (A) (A) (A) (A)
                 (A) (A) (A) (A) (A) (A) (A) (A) (A) (A) (A) (A)
                 (A) (A) (A) (A) (A) (A) (A) (A) (A) (A) (A) (A)
                 (A) (A) (A) (A) (A) (A) (A) (A) (A) (A) (A) (A)
                 (A) (A) (A) (A) (A) (A) (A) (A) (A) (A) (A) (A)
                 (A) (A) (A) (A) (A) (A) (A) (A) (A) (A) (A) (A)
                 (A) (A) (A) (A) (A) (A) (A) (A) (A) (A) (A) (A)
                 (A) (A) (A) (A) (A) (A) (A) (A) (A) (A) (A) (A)
                 (A) (A) (A) (A) (A) (A) (A) (A) (A) (A) (A) (A)
                 (A) (A) (A) (A) (A) (A) (A) (A) (A) (A) (A) (A)
                 (A) (A) (A) (A) (A) (A) (A) (A) (A) (A) (A) (A)
                 (A) (A) (A) (A) (A) (A) (A) (A) (A) (A) (A) (A)
                 (A) (A) (A) (A) (A) (A) (A) (A) (A) (A) (A) (A)
                 (A) (A) (A) (A) (A) (A) (A) (A) (A) (A) (A) (A)
                 (A) (A) (A) (A) (A) (A) (A) (A) (A) (A) (A) (A)
                 (A) (A) (A) (A) (A) (A) (A) (A) (A) (A) (A) (A)
                 (A) (A) (A) (A) (A) (A) (A) (A) (A) (A) (A) (A)
                 (A) (A) (A) (A) (A) (A) (A) (A) (A) (A) (A) (A)
                 (A) (A) (A) (A) (A) (A) (A) (A) (A) (A) (A) (A)
                 (A) (A) (A) (A) (A) (A) (A) (A) (A) (A) (A) (A)
                 (A) (A) (A) (A) (A) (A) (A) (A) (A) (A) (A) (A)
                 (A) (A) (A) (A) (A) (A) (A) (A) (A) (A) (A) (A)
                 (A) (A) (A) (A) (A) (A) (A) (A) (A) (A) (A) (A)
                 (A) (A) (A) (A) (A) (A) (A) (A) (A) (A) (A) (A)
                 (A) (A) (A) (A) (A) (A) (A) (A) (A) (A) (A) (A)
                 (A) (A) (A) (A) (A) (A) (A) (A) (A) (A) (A) (A)
                 (A) (A) (A) (A) (A) (A) (A) (A) (A) (A) (A) (A)
                 (A) (A) (A) (A) (A) (A) (A) (A) (A) (A) (A) (A)
                 (A) (A) (A) (A) (A) (A) (A) (A) (A) (A) (A) (A)
                 (A) (A) (A) (A) (A) (A) (A) (A) (A) (A) (A) (A)
                 (A) (A) (A) (A) (A) (A) (A) (A) (A) (A) (A) (A)
                 (A) (A) (A) (A) (A) (A) (A) (A) (A) (A) (A) (A)
                 (A) (A) (A) (A) (A) (A) (A) (A) (A) (A) (A) (A)
                 (A) (A) (A) (A) (A) (A) (A) (A) (A) (A) (A) (A)
                 (A) (A) (A) (A) (A) (A) (A) (A) (A) (A) (A) (A)
                 (A) (A) (A) (A) (A) (A) (A) (A) (A) (A) (A) (A)
                 (A) (A) (A) (A) (A) (A) (A) (A) (A) (A) (A) (A)
                 (A) (A) (A) (A) (A) (A) (A) (A) (A) (A) (A) (A)
                 (A) (A) (A) (A) (A) (A) (A) (A) (A) (A) (A) (A)
                 (A) (A) (A) (A) (A) (A) (A) (A) (A) (A) (A) (A)
                 (A) (A) (A) (A) (A) (A) (A) (A) (A) (A) (A) (A)
                 (A) (A) (A) (A) (A) (A) (A) (A) (A) (A) (A) (A)
                 (A) (A) (A) (A) (A) (A) (A) (A) (A) (A) (A) (A)
                 (A) (A) (A) (A) (A) (A) (A) (A) (A) (A) (A) (A)
                 (A) (A) (A) (A) (A) (A) (A) (A) (A) (A) (A) (A)
                 (A) (A) (A) (A) (A) (A) (A) (A) (A) (A) (A) (A)
                 (A) (A) (A) (A) (A) (A) (A) (A) (A) (A) (A) (A)
                 (A) (A) (A) (A) (A) (A) (A) (A) (A) (A) (A) (A)
                 (A) (A) (A) (A) (A) (A) (A) (A) (A) (A) (A) (A)
                 (A) (A) (A) (A) (A) (A) (A) (A) (A) (A) (A) (A)
                 (A) (A) (A) (A) (A) (A) (A) (A) (A) (A) (A) (A)
                 (A) (A) (A) (A) (A) (A) (A) (A) (A) (A) (A) (A)
                 (A) (A) (A) (A) (A) (A) (A) (A) (A) (A) (A) (A)
                 (A) (A) (A) (A) (A) (A) (A) (A) (A) (A) (A) (A)
                 (A) (A) (A) (A) (A) (A) (A) (A) (A) (A) (A) (A)
                 (A) (A) (A) (A) (A) (A) (A) (A) (A) (A) (A) (A)
                 (A) (A) (A) (A) (A) (A) (A) (A) (A) (A) (A) (A)
                 (A) (A) (A) (A) (A) (A) (A) (A) (A) (A) (A) (A)
                 (A) (A) (A) (A) (A) (A) (A) (A) (A) (A) (A) (A)
                 (A) (A) (A) (A) (A) (A) (A) (A) (A) (A) (A) (A)
                 (A) (A) (A) (A) (A) (A) (A) (A) (A) (A) (A) (A)
                 (A) (A) (A) (A) (A) (A) (A) (A) (A) (A) (A) (A)
                 (A) (A) (A) (A) (A) (A) (A) (A) (A) (A) (A) (A)
                 (A) (A) (A) (A) (A) (A) (A) (A) (A) (A) (A) (A)
                 (A) (A) (A) (A) (A) (A) (A) (A) (A) (A) (A) (A)
                 (A) (A) (A) (A) (A) (A) (A) (A) (A) (A) (A) (A)
                 (A) (A) (A) (A) (A) (A) (A) (A) (A) (A) (A) (A)
                 (A) (A) (A) (A) (A) (A) (A) (A) (A) (A) (A) (A)
                 (A) (A) (A) (A) (A) (A) (A) (A) (A) (A) (A) (A)
                 (A) (A) (A) (A) (A) (A) (A) (A) (A) (A) (A) (A)
                 (A) (A) (A) (A) (A) (A) (A) (A) (A) (A) (A) (A)
                 (A) (A) (A) (A) (A) (A) (A) (A) (A) (A) (A) (A)
                 (A) (A) (A) (A) (A) (A) (A) (A) (A) (A) (A) (A)
                 (A) (A) (A) (A) (A) (A) (A) (A) (A) (A) (A) (A)
                 (A) (A) (A) (A) (A) (A) (A) (A) (A) (A) (A) (A)
                 (A) (A) (A) (A) (A) (A) (A) (A) (A) (A) (A) (A)
                 (A) (A) (A) (A) (A) (A) (A) (A) (A) (A) (A) (A)
                 (A) (A) (A) (A) (A) (A) (A) (A) (A) (A) (A) (A)
                 (A) (A) (A) (A) (A) (A) (A) (A) (A) (A) (A) (A)
                 (A) (A) (A) (A) (A) (A) (A) (A) (A) (A) (A) (A)
                 (A) (A) (A) (A) (A) (A) (A) (A) (A) (A) (A) (A)
                 (A) (A) (A) (A) (A) (A) (A) (A) (A) (A) (A) (A)
                 (A) (A) (A) (A) (A) (A) (A) (A) (A) (A) (A) (A)
                 (A) (A) (A) (A) (A) (A) (A) (A) (A) (A) (A) (A)
                 (A) (A) (A) (A) (A) (A) (A) (A) (A) (A) (A) (A)
                 (A) (A) (A) (A) (A) (A) (A) (A) (A) (A) (A) (A)
                 (A) (A) (A) (A) (A) (A) (A) (A) (A) (A) (A) (A)
                 (A) (A) (A) (A) (A) (A) (A) (A) (A) (A) (A) (A)
                 (A) (A) (A) (A) (A) (A) (A) (A) (A) (A) (A) (A)
                 (A) (A) (A) (A) (A) (A) (A) (A) (A) (A) (A) (A)
                 (A) (A) (A) (A) (A) (A) (A) (A) (A) (A) (A) (A)
                 (A) (A) (A) (A) (A) (A) (A) (A) (A) (A) (A) (A)
                 (A) (A) (A) (A) (A) (A) (A) (A) (A) (A) (A) (A)
                 (A) (A) (A) (A) (A) (A) (A) (A) (A) (A) (A) (A)
                 (A) (A) (A) (A) (A) (A) (A) (A) (A) (A) (A) (A)
                 (A) (A) (A) (A) (A) (A) (A) (A) (A) (A) (A) (A)
                 (A) (A) (A) (A) (A) (A) (A) (A) (A) (A) (A) (A)
                 (A) (A) (A) (A) (A) (A) (A) (A) (A) (A) (A) (A)
                 (A) (A) (A) (A) (A) (A) (A) (A) (A) (A) (A) (A)
                 (A) (A) (A) (A) (A) (A) (A) (A) (A) (A) (A) (A)
                 (A) (A) (A) (A) (A) (A) (A) (A) (A) (A) (A) (A)
                 (A) (A) (A) (A) (A) (A) (A) (A) (A) (A) (A) (A)
                 (A) (A) (A) (A) (A) (A) (A) (A) (A) (A) (A) (A)
                 (A) (A) (A)
 The electronic state is 1-A.
 Alpha  occ. eigenvalues --  -20.53170 -20.51436 -15.60783 -15.56981 -11.36871
 Alpha  occ. eigenvalues --  -11.34594 -11.28306 -11.25048  -1.40283  -1.37823
 Alpha  occ. eigenvalues --   -1.25655  -1.20592  -1.04369  -0.97461  -0.82825
 Alpha  occ. eigenvalues --   -0.78988  -0.73364  -0.72026  -0.68010  -0.66469
 Alpha  occ. eigenvalues --   -0.62804  -0.60363  -0.59799  -0.58603  -0.56569
 Alpha  occ. eigenvalues --   -0.54131  -0.53704  -0.45276  -0.44330  -0.40790
 Alpha  occ. eigenvalues --   -0.40068
 Alpha virt. eigenvalues --    0.02243   0.03578   0.04115   0.04319   0.05571
 Alpha virt. eigenvalues --    0.05681   0.06249   0.06771   0.07256   0.08203
 Alpha virt. eigenvalues --    0.08570   0.09060   0.10205   0.10491   0.11698
 Alpha virt. eigenvalues --    0.11943   0.12604   0.13040   0.13545   0.14287
 Alpha virt. eigenvalues --    0.14962   0.15125   0.15413   0.15891   0.16265
 Alpha virt. eigenvalues --    0.16671   0.17132   0.17807   0.18267   0.18566
 Alpha virt. eigenvalues --    0.19203   0.19950   0.20323   0.20958   0.21792
 Alpha virt. eigenvalues --    0.22129   0.22757   0.23293   0.23748   0.24505
 Alpha virt. eigenvalues --    0.24724   0.26588   0.26887   0.27233   0.27614
 Alpha virt. eigenvalues --    0.28512   0.28963   0.29650   0.30011   0.30418
 Alpha virt. eigenvalues --    0.30663   0.31286   0.31439   0.32185   0.32577
 Alpha virt. eigenvalues --    0.33541   0.33978   0.35399   0.35878   0.36141
 Alpha virt. eigenvalues --    0.36386   0.36683   0.37320   0.37904   0.38420
 Alpha virt. eigenvalues --    0.38579   0.39334   0.40226   0.40982   0.41279
 Alpha virt. eigenvalues --    0.42538   0.42851   0.43101   0.43621   0.43689
 Alpha virt. eigenvalues --    0.43984   0.44719   0.45348   0.45791   0.46221
 Alpha virt. eigenvalues --    0.46483   0.48083   0.48642   0.48953   0.49672
 Alpha virt. eigenvalues --    0.50417   0.51196   0.52520   0.53125   0.53938
 Alpha virt. eigenvalues --    0.54231   0.55075   0.55697   0.56571   0.56912
 Alpha virt. eigenvalues --    0.57501   0.59128   0.59602   0.60104   0.60239
 Alpha virt. eigenvalues --    0.60405   0.61218   0.61402   0.61698   0.62195
 Alpha virt. eigenvalues --    0.62738   0.63967   0.64542   0.65056   0.65347
 Alpha virt. eigenvalues --    0.65814   0.67216   0.67647   0.67990   0.68313
 Alpha virt. eigenvalues --    0.69153   0.69334   0.69990   0.70619   0.71200
 Alpha virt. eigenvalues --    0.71869   0.72639   0.72799   0.73334   0.73775
 Alpha virt. eigenvalues --    0.74353   0.74586   0.75839   0.76296   0.76630
 Alpha virt. eigenvalues --    0.77430   0.78440   0.79266   0.79435   0.79897
 Alpha virt. eigenvalues --    0.80601   0.81554   0.81938   0.83318   0.84158
 Alpha virt. eigenvalues --    0.84599   0.84945   0.85777   0.86413   0.87772
 Alpha virt. eigenvalues --    0.88136   0.88821   0.89607   0.90225   0.91392
 Alpha virt. eigenvalues --    0.91861   0.93117   0.93361   0.93487   0.94930
 Alpha virt. eigenvalues --    0.95083   0.95985   0.97122   0.97453   0.98871
 Alpha virt. eigenvalues --    0.99592   1.00388   1.01557   1.02032   1.02654
 Alpha virt. eigenvalues --    1.03251   1.03874   1.05644   1.06055   1.06272
 Alpha virt. eigenvalues --    1.07285   1.07533   1.09124   1.10143   1.10489
 Alpha virt. eigenvalues --    1.10794   1.11374   1.12537   1.13255   1.14225
 Alpha virt. eigenvalues --    1.14365   1.15035   1.15761   1.17399   1.17761
 Alpha virt. eigenvalues --    1.18411   1.19519   1.19743   1.20493   1.21991
 Alpha virt. eigenvalues --    1.22239   1.22642   1.22991   1.23646   1.24564
 Alpha virt. eigenvalues --    1.24715   1.25635   1.26657   1.27134   1.27835
 Alpha virt. eigenvalues --    1.29044   1.29657   1.30272   1.30788   1.31218
 Alpha virt. eigenvalues --    1.31740   1.32392   1.33264   1.33878   1.34468
 Alpha virt. eigenvalues --    1.34756   1.35735   1.36413   1.36841   1.37729
 Alpha virt. eigenvalues --    1.38542   1.38900   1.39331   1.40360   1.41138
 Alpha virt. eigenvalues --    1.41537   1.41868   1.41958   1.44436   1.45009
 Alpha virt. eigenvalues --    1.45024   1.45982   1.46272   1.47438   1.47672
 Alpha virt. eigenvalues --    1.48810   1.49136   1.49912   1.50925   1.52115
 Alpha virt. eigenvalues --    1.53236   1.53361   1.54520   1.55511   1.55731
 Alpha virt. eigenvalues --    1.57326   1.58197   1.58772   1.61270   1.61552
 Alpha virt. eigenvalues --    1.63526   1.63941   1.64498   1.65976   1.66500
 Alpha virt. eigenvalues --    1.67747   1.68427   1.69837   1.70997   1.71297
 Alpha virt. eigenvalues --    1.71974   1.72864   1.74040   1.75289   1.76182
 Alpha virt. eigenvalues --    1.76445   1.78010   1.79618   1.81239   1.81712
 Alpha virt. eigenvalues --    1.83006   1.83707   1.85528   1.86292   1.86932
 Alpha virt. eigenvalues --    1.87012   1.89481   1.90643   1.91157   1.91348
 Alpha virt. eigenvalues --    1.92331   1.92997   1.93990   1.94943   1.95852
 Alpha virt. eigenvalues --    1.96417   1.96578   1.99667   1.99835   2.00657
 Alpha virt. eigenvalues --    2.00854   2.02752   2.03163   2.03512   2.04167
 Alpha virt. eigenvalues --    2.05027   2.05497   2.06863   2.07453   2.09062
 Alpha virt. eigenvalues --    2.09710   2.10692   2.11662   2.12840   2.13527
 Alpha virt. eigenvalues --    2.13926   2.15183   2.15535   2.17142   2.19211
 Alpha virt. eigenvalues --    2.19488   2.20780   2.20994   2.21888   2.22396
 Alpha virt. eigenvalues --    2.22674   2.23487   2.24554   2.25592   2.26069
 Alpha virt. eigenvalues --    2.26473   2.26908   2.29040   2.29246   2.30364
 Alpha virt. eigenvalues --    2.30458   2.31132   2.32741   2.33665   2.35220
 Alpha virt. eigenvalues --    2.35718   2.35907   2.36077   2.38105   2.38365
 Alpha virt. eigenvalues --    2.39183   2.39527   2.40900   2.42060   2.42956
 Alpha virt. eigenvalues --    2.43916   2.44297   2.45124   2.45811   2.46590
 Alpha virt. eigenvalues --    2.48282   2.48542   2.49046   2.50343   2.50573
 Alpha virt. eigenvalues --    2.51385   2.52776   2.52975   2.53353   2.54959
 Alpha virt. eigenvalues --    2.55824   2.56629   2.57700   2.58396   2.59595
 Alpha virt. eigenvalues --    2.60306   2.60690   2.61271   2.62520   2.63855
 Alpha virt. eigenvalues --    2.64782   2.65564   2.66686   2.67719   2.68507
 Alpha virt. eigenvalues --    2.69799   2.70763   2.71985   2.72051   2.72530
 Alpha virt. eigenvalues --    2.73659   2.74076   2.74851   2.75594   2.77251
 Alpha virt. eigenvalues --    2.78079   2.79114   2.81122   2.81846   2.82770
 Alpha virt. eigenvalues --    2.84562   2.85666   2.86150   2.87443   2.87517
 Alpha virt. eigenvalues --    2.89431   2.90086   2.90993   2.91369   2.93469
 Alpha virt. eigenvalues --    2.94269   2.94664   2.94861   2.95967   2.97915
 Alpha virt. eigenvalues --    2.98782   2.99756   3.01027   3.01857   3.02377
 Alpha virt. eigenvalues --    3.03733   3.05431   3.06474   3.08736   3.09130
 Alpha virt. eigenvalues --    3.09910   3.10915   3.11536   3.13591   3.14521
 Alpha virt. eigenvalues --    3.14999   3.16182   3.16485   3.17594   3.18876
 Alpha virt. eigenvalues --    3.19771   3.20140   3.20843   3.22465   3.24653
 Alpha virt. eigenvalues --    3.25606   3.25895   3.26664   3.28779   3.29536
 Alpha virt. eigenvalues --    3.31692   3.32496   3.34051   3.35599   3.35791
 Alpha virt. eigenvalues --    3.36449   3.37412   3.39150   3.39584   3.40403
 Alpha virt. eigenvalues --    3.41169   3.42478   3.43904   3.45193   3.45776
 Alpha virt. eigenvalues --    3.46315   3.48263   3.48606   3.50320   3.50784
 Alpha virt. eigenvalues --    3.51703   3.52806   3.53711   3.54818   3.55612
 Alpha virt. eigenvalues --    3.56905   3.58007   3.59855   3.60049   3.61632
 Alpha virt. eigenvalues --    3.61727   3.62307   3.63398   3.66073   3.66823
 Alpha virt. eigenvalues --    3.68196   3.69462   3.70358   3.71299   3.72727
 Alpha virt. eigenvalues --    3.73167   3.74308   3.75018   3.75622   3.77794
 Alpha virt. eigenvalues --    3.78499   3.79802   3.80543   3.82163   3.83393
 Alpha virt. eigenvalues --    3.83821   3.86604   3.87243   3.88146   3.89364
 Alpha virt. eigenvalues --    3.91099   3.91266   3.92906   3.93450   3.94209
 Alpha virt. eigenvalues --    3.95588   3.96573   3.98993   3.99404   4.00249
 Alpha virt. eigenvalues --    4.01821   4.02595   4.03584   4.04131   4.04769
 Alpha virt. eigenvalues --    4.06061   4.07055   4.07833   4.09456   4.10108
 Alpha virt. eigenvalues --    4.12860   4.14676   4.15520   4.16501   4.17193
 Alpha virt. eigenvalues --    4.18843   4.19636   4.23003   4.24424   4.26028
 Alpha virt. eigenvalues --    4.26316   4.27283   4.28639   4.30030   4.30909
 Alpha virt. eigenvalues --    4.32850   4.34125   4.36077   4.36877   4.37699
 Alpha virt. eigenvalues --    4.39143   4.39745   4.40704   4.42126   4.43632
 Alpha virt. eigenvalues --    4.44184   4.45376   4.47291   4.48119   4.49654
 Alpha virt. eigenvalues --    4.50176   4.50987   4.52700   4.53477   4.55123
 Alpha virt. eigenvalues --    4.57126   4.58338   4.58908   4.59155   4.59791
 Alpha virt. eigenvalues --    4.62899   4.64911   4.65511   4.67289   4.68048
 Alpha virt. eigenvalues --    4.69523   4.70330   4.71115   4.72753   4.73271
 Alpha virt. eigenvalues --    4.74179   4.74676   4.77049   4.77458   4.79290
 Alpha virt. eigenvalues --    4.79629   4.81865   4.82645   4.83118   4.83663
 Alpha virt. eigenvalues --    4.85536   4.86397   4.87018   4.89068   4.90022
 Alpha virt. eigenvalues --    4.91744   4.92955   4.95305   4.95914   4.97079
 Alpha virt. eigenvalues --    4.97384   4.98283   4.99442   5.00068   5.01991
 Alpha virt. eigenvalues --    5.02673   5.04171   5.05556   5.06143   5.08351
 Alpha virt. eigenvalues --    5.08695   5.10178   5.12063   5.13746   5.14438
 Alpha virt. eigenvalues --    5.15973   5.17353   5.17721   5.18771   5.21119
 Alpha virt. eigenvalues --    5.21802   5.22974   5.24491   5.25349   5.27024
 Alpha virt. eigenvalues --    5.29122   5.30341   5.32334   5.33251   5.33891
 Alpha virt. eigenvalues --    5.34562   5.35841   5.36590   5.37905   5.38985
 Alpha virt. eigenvalues --    5.40367   5.42326   5.42843   5.43208   5.44994
 Alpha virt. eigenvalues --    5.45689   5.47537   5.49531   5.50818   5.51141
 Alpha virt. eigenvalues --    5.52435   5.54196   5.55222   5.55508   5.56568
 Alpha virt. eigenvalues --    5.58055   5.59932   5.60857   5.62067   5.63320
 Alpha virt. eigenvalues --    5.65649   5.67468   5.68602   5.69333   5.70267
 Alpha virt. eigenvalues --    5.71743   5.71974   5.73397   5.73897   5.75243
 Alpha virt. eigenvalues --    5.76373   5.78066   5.78442   5.79507   5.80348
 Alpha virt. eigenvalues --    5.81997   5.82667   5.84324   5.84893   5.85422
 Alpha virt. eigenvalues --    5.87004   5.87544   5.89817   5.90097   5.92066
 Alpha virt. eigenvalues --    5.92367   5.93260   5.94507   5.94887   5.96517
 Alpha virt. eigenvalues --    5.97762   5.98053   5.99155   6.01324   6.02900
 Alpha virt. eigenvalues --    6.04458   6.06224   6.07293   6.07722   6.09795
 Alpha virt. eigenvalues --    6.11592   6.13002   6.14022   6.14483   6.15034
 Alpha virt. eigenvalues --    6.16773   6.18059   6.18924   6.19812   6.20358
 Alpha virt. eigenvalues --    6.21827   6.24854   6.25444   6.27501   6.30371
 Alpha virt. eigenvalues --    6.32632   6.34475   6.35048   6.37085   6.38969
 Alpha virt. eigenvalues --    6.40014   6.41340   6.42771   6.43798   6.44865
 Alpha virt. eigenvalues --    6.46351   6.49315   6.50574   6.51823   6.52344
 Alpha virt. eigenvalues --    6.54542   6.56647   6.59510   6.61049   6.61321
 Alpha virt. eigenvalues --    6.63939   6.66384   6.68600   6.69895   6.70626
 Alpha virt. eigenvalues --    6.71890   6.76626   6.77755   6.78917   6.80470
 Alpha virt. eigenvalues --    6.81198   6.83509   6.83914   6.86933   6.89278
 Alpha virt. eigenvalues --    6.90096   6.93461   6.95878   6.97913   6.99403
 Alpha virt. eigenvalues --    7.01243   7.02334   7.04210   7.06223   7.09414
 Alpha virt. eigenvalues --    7.11925   7.14609   7.19485   7.25251   7.25634
 Alpha virt. eigenvalues --    7.26222   7.29289   7.30517   7.32089   7.33093
 Alpha virt. eigenvalues --    7.33795   7.36181   7.38700   7.39524   7.41932
 Alpha virt. eigenvalues --    7.42612   7.44469   7.47066   7.47891   7.50039
 Alpha virt. eigenvalues --    7.50951   7.52586   7.55423   7.55483   7.56780
 Alpha virt. eigenvalues --    7.58103   7.60187   7.63320   7.63962   7.65266
 Alpha virt. eigenvalues --    7.67548   7.67700   7.68641   7.72531   7.74917
 Alpha virt. eigenvalues --    7.75505   7.76312   7.78325   7.78806   7.81134
 Alpha virt. eigenvalues --    7.81820   7.85794   7.87560   7.90287   7.92106
 Alpha virt. eigenvalues --    7.92428   7.93816   7.95651   7.96520   7.97410
 Alpha virt. eigenvalues --    7.98208   7.99811   8.00227   8.02916   8.03483
 Alpha virt. eigenvalues --    8.05131   8.07784   8.08448   8.09410   8.12253
 Alpha virt. eigenvalues --    8.14389   8.16472   8.21059   8.22045   8.23949
 Alpha virt. eigenvalues --    8.26457   8.29308   8.30067   8.31822   8.35845
 Alpha virt. eigenvalues --    8.37210   8.38793   8.40039   8.41219   8.44459
 Alpha virt. eigenvalues --    8.46921   8.47621   8.50498   8.51441   8.53351
 Alpha virt. eigenvalues --    8.55438   8.56374   8.59090   8.60500   8.63671
 Alpha virt. eigenvalues --    8.66297   8.68329   8.70882   8.73958   8.77308
 Alpha virt. eigenvalues --    8.80432   8.81808   8.83675   8.84350   8.87809
 Alpha virt. eigenvalues --    8.92404   8.95270   8.98628   9.01647   9.03192
 Alpha virt. eigenvalues --    9.06191   9.10304   9.14730   9.15904   9.18217
 Alpha virt. eigenvalues --    9.22602   9.24050   9.25121   9.28848   9.29650
 Alpha virt. eigenvalues --    9.32116   9.34970   9.37539   9.38739   9.47193
 Alpha virt. eigenvalues --    9.48655   9.50041   9.53336   9.53677   9.58351
 Alpha virt. eigenvalues --    9.62032   9.63811   9.66351   9.68293   9.71396
 Alpha virt. eigenvalues --    9.75141   9.79181   9.81715   9.82188   9.83195
 Alpha virt. eigenvalues --    9.85947   9.88051   9.90368   9.91640   9.95264
 Alpha virt. eigenvalues --    9.98865  10.03784  10.05131  10.05990  10.08791
 Alpha virt. eigenvalues --   10.13702  10.14444  10.17210  10.19221  10.22493
 Alpha virt. eigenvalues --   10.24525  10.27210  10.29897  10.33077  10.35423
 Alpha virt. eigenvalues --   10.38597  10.41817  10.44933  10.46349  10.48071
 Alpha virt. eigenvalues --   10.49564  10.52540  10.55337  10.57317  10.59614
 Alpha virt. eigenvalues --   10.61547  10.64050  10.66043  10.66999  10.69175
 Alpha virt. eigenvalues --   10.72151  10.73846  10.75838  10.78583  10.82587
 Alpha virt. eigenvalues --   10.85823  10.87312  10.88685  10.90294  10.95571
 Alpha virt. eigenvalues --   10.96133  10.98066  11.00590  11.05944  11.06695
 Alpha virt. eigenvalues --   11.07531  11.09611  11.12483  11.13206  11.15597
 Alpha virt. eigenvalues --   11.16824  11.19435  11.22279  11.25494  11.27462
 Alpha virt. eigenvalues --   11.29302  11.33537  11.35503  11.36080  11.40760
 Alpha virt. eigenvalues --   11.43652  11.44752  11.50634  11.52191  11.54817
 Alpha virt. eigenvalues --   11.56053  11.58519  11.62285  11.65032  11.66467
 Alpha virt. eigenvalues --   11.66533  11.67581  11.69537  11.70548  11.74817
 Alpha virt. eigenvalues --   11.75644  11.78398  11.80206  11.82598  11.85985
 Alpha virt. eigenvalues --   11.91481  11.92330  11.93980  11.95980  11.97037
 Alpha virt. eigenvalues --   11.97517  11.99967  12.01819  12.04729  12.06894
 Alpha virt. eigenvalues --   12.08705  12.12080  12.13839  12.17015  12.20827
 Alpha virt. eigenvalues --   12.22755  12.24012  12.26251  12.32290  12.34348
 Alpha virt. eigenvalues --   12.38594  12.40530  12.42951  12.44324  12.47911
 Alpha virt. eigenvalues --   12.57403  12.62360  12.64691  12.65466  12.67244
 Alpha virt. eigenvalues --   12.72696  12.73700  12.74882  12.75890  12.78337
 Alpha virt. eigenvalues --   12.78995  12.82009  12.82311  12.83127  12.84418
 Alpha virt. eigenvalues --   12.86150  12.88144  12.88581  12.89478  12.89884
 Alpha virt. eigenvalues --   12.90681  12.92008  12.94644  12.96619  12.98633
 Alpha virt. eigenvalues --   12.99864  13.00799  13.01899  13.03769  13.06484
 Alpha virt. eigenvalues --   13.06614  13.09567  13.12351  13.14682  13.15688
 Alpha virt. eigenvalues --   13.17801  13.18737  13.20433  13.20974  13.21823
 Alpha virt. eigenvalues --   13.23769  13.26074  13.26377  13.29639  13.30468
 Alpha virt. eigenvalues --   13.31689  13.33495  13.34979  13.35735  13.37251
 Alpha virt. eigenvalues --   13.38997  13.40366  13.41342  13.41753  13.45348
 Alpha virt. eigenvalues --   13.45640  13.48892  13.51593  13.53505  13.54311
 Alpha virt. eigenvalues --   13.55042  13.58785  13.59572  13.60484  13.61867
 Alpha virt. eigenvalues --   13.64519  13.66438  13.68299  13.69545  13.71267
 Alpha virt. eigenvalues --   13.72195  13.75469  13.77094  13.78368  13.79060
 Alpha virt. eigenvalues --   13.81721  13.83878  13.86131  13.86386  13.89745
 Alpha virt. eigenvalues --   13.90650  13.90981  13.91441  13.93448  13.96341
 Alpha virt. eigenvalues --   13.98257  14.00852  14.01533  14.04489  14.06255
 Alpha virt. eigenvalues --   14.06814  14.07718  14.10476  14.13117  14.13839
 Alpha virt. eigenvalues --   14.15602  14.18025  14.19929  14.21052  14.22687
 Alpha virt. eigenvalues --   14.24088  14.25528  14.27273  14.28472  14.28986
 Alpha virt. eigenvalues --   14.31228  14.31640  14.32463  14.33061  14.33751
 Alpha virt. eigenvalues --   14.34183  14.34561  14.35099  14.37633  14.37741
 Alpha virt. eigenvalues --   14.39764  14.41472  14.42226  14.42896  14.45129
 Alpha virt. eigenvalues --   14.46048  14.47688  14.48381  14.48826  14.49001
 Alpha virt. eigenvalues --   14.49278  14.51212  14.52474  14.52912  14.53845
 Alpha virt. eigenvalues --   14.55116  14.56809  14.57669  14.58314  14.60132
 Alpha virt. eigenvalues --   14.61367  14.62843  14.66196  14.68012  14.70972
 Alpha virt. eigenvalues --   14.71826  14.73998  14.75272  14.75868  14.78042
 Alpha virt. eigenvalues --   14.79080  14.79869  14.81123  14.82074  14.84429
 Alpha virt. eigenvalues --   14.85281  14.86814  14.87712  14.90438  14.91423
 Alpha virt. eigenvalues --   14.94811  14.98327  15.00034  15.01328  15.02859
 Alpha virt. eigenvalues --   15.05683  15.05780  15.07584  15.09992  15.11477
 Alpha virt. eigenvalues --   15.11791  15.14971  15.16506  15.18758  15.20509
 Alpha virt. eigenvalues --   15.22927  15.23108  15.24873  15.25821  15.31139
 Alpha virt. eigenvalues --   15.31985  15.33958  15.37106  15.41409  15.43441
 Alpha virt. eigenvalues --   15.45998  15.47648  15.48810  15.49625  15.50245
 Alpha virt. eigenvalues --   15.52557  15.55037  15.59880  15.62047  15.66070
 Alpha virt. eigenvalues --   15.68073  15.69961  15.71205  15.72576  15.74572
 Alpha virt. eigenvalues --   15.75682  15.80719  15.80938  15.82194  15.83975
 Alpha virt. eigenvalues --   15.90884  15.95836  15.97604  15.97964  16.01612
 Alpha virt. eigenvalues --   16.06840  16.07126  16.14013  16.18403  16.19475
 Alpha virt. eigenvalues --   16.21980  16.24455  16.29450  16.30352  16.33553
 Alpha virt. eigenvalues --   16.36421  16.42952  16.45475  16.46869  16.48133
 Alpha virt. eigenvalues --   16.50158  16.59067  16.60686  16.63748  16.64368
 Alpha virt. eigenvalues --   16.66973  16.67615  16.70317  16.76883  16.81813
 Alpha virt. eigenvalues --   16.85380  16.92463  16.93390  16.97331  17.01356
 Alpha virt. eigenvalues --   17.03457  17.08544  17.10713  17.13466  17.14751
 Alpha virt. eigenvalues --   17.17829  17.18591  17.19861  17.22333  17.30294
 Alpha virt. eigenvalues --   17.33313  17.35346  17.37891  17.41862  17.45569
 Alpha virt. eigenvalues --   17.46848  17.62290  17.68312  17.76822  17.81668
 Alpha virt. eigenvalues --   17.83534  17.93621  17.97332  17.99999  18.08254
 Alpha virt. eigenvalues --   18.09903  18.11648  18.13642  18.14533  18.16378
 Alpha virt. eigenvalues --   18.18242  18.20036  18.21415  18.24096  18.28389
 Alpha virt. eigenvalues --   18.30110  18.37523  18.38191  18.59221  18.61023
 Alpha virt. eigenvalues --   18.65025  18.66292  18.66974  18.73714  18.76140
 Alpha virt. eigenvalues --   18.76279  18.80859  18.84597  18.85752  18.87320
 Alpha virt. eigenvalues --   18.89257  18.93777  18.95217  18.97558  18.99495
 Alpha virt. eigenvalues --   19.02378  19.08382  19.17283  19.29035  19.29646
 Alpha virt. eigenvalues --   19.38316  19.40771  19.43433  19.45744  19.47833
 Alpha virt. eigenvalues --   19.48607  19.50285  19.53772  19.55161  19.57874
 Alpha virt. eigenvalues --   19.61271  19.64223  19.65875  19.66836  19.71824
 Alpha virt. eigenvalues --   19.72408  19.75375  19.82657  19.85835  19.86403
 Alpha virt. eigenvalues --   19.87256  19.91612  19.93400  20.00523  20.04386
 Alpha virt. eigenvalues --   20.11866  20.21843  20.23439  20.26492  20.30742
 Alpha virt. eigenvalues --   20.33747  20.51503  20.52955  20.60730  20.74985
 Alpha virt. eigenvalues --   20.87086  21.05708  21.07918  21.14742  21.17295
 Alpha virt. eigenvalues --   21.19840  21.22403  21.24047  21.25102  21.29725
 Alpha virt. eigenvalues --   21.40597  21.62783  21.67006  21.93045  22.44304
 Alpha virt. eigenvalues --   22.49336  22.55547  22.68133  22.72236  22.80045
 Alpha virt. eigenvalues --   22.84039  22.86074  22.94168  23.57509  23.82079
 Alpha virt. eigenvalues --   23.84645  23.94111  24.30027  24.34066  24.41961
 Alpha virt. eigenvalues --   24.53929  24.57172  41.75810  41.92840  43.19652
 Alpha virt. eigenvalues --   43.36147  54.06490  54.88051  65.28338  65.38716
          Condensed to atoms (all electrons):
               1          2          3          4          5          6
     1  C    4.590888   0.459688  -0.074516  -0.000687   0.003179  -0.031943
     2  C    0.459688   4.190623   0.420915  -0.006322  -0.020702   0.551621
     3  N   -0.074516   0.420915   6.727427   0.382398   0.416823  -0.096391
     4  H   -0.000687  -0.006322   0.382398   0.231980  -0.012957   0.002795
     5  H    0.003179  -0.020702   0.416823  -0.012957   0.291192  -0.007157
     6  O   -0.031943   0.551621  -0.096391   0.002795  -0.007157   8.204870
     7  N    0.368066  -0.039482  -0.007252   0.000575  -0.000652   0.004460
     8  C   -0.040382  -0.024091  -0.002690  -0.001300  -0.000285   0.001424
     9  O   -0.014045  -0.001964  -0.033665   0.000725   0.001988  -0.000434
    10  H   -0.023419   0.001404   0.000050  -0.000028   0.000026  -0.000687
    11  C    0.003144  -0.003022   0.000704   0.000609   0.000005   0.000270
    12  H   -0.000501   0.000018  -0.000227   0.000036   0.000004  -0.000005
    13  H   -0.000963  -0.000046   0.000235  -0.000047  -0.000006   0.000018
    14  H    0.000899   0.000135   0.000384  -0.000016  -0.000008   0.000041
    15  H    0.417056  -0.054983  -0.006564  -0.000983  -0.000249   0.004349
    16  H    0.429607  -0.042731   0.002095   0.000007  -0.000121  -0.011404
               7          8          9         10         11         12
     1  C    0.368066  -0.040382  -0.014045  -0.023419   0.003144  -0.000501
     2  C   -0.039482  -0.024091  -0.001964   0.001404  -0.003022   0.000018
     3  N   -0.007252  -0.002690  -0.033665   0.000050   0.000704  -0.000227
     4  H    0.000575  -0.001300   0.000725  -0.000028   0.000609   0.000036
     5  H   -0.000652  -0.000285   0.001988   0.000026   0.000005   0.000004
     6  O    0.004460   0.001424  -0.000434  -0.000687   0.000270  -0.000005
     7  N    6.337465   0.493935  -0.115498   0.418920  -0.071312   0.000421
     8  C    0.493935   4.186810   0.541083  -0.012380   0.458862  -0.003941
     9  O   -0.115498   0.541083   8.323793   0.004893  -0.046558  -0.014051
    10  H    0.418920  -0.012380   0.004893   0.298106  -0.003126   0.000371
    11  C   -0.071312   0.458862  -0.046558  -0.003126   4.675419   0.420588
    12  H    0.000421  -0.003941  -0.014051   0.000371   0.420588   0.507003
    13  H   -0.008379  -0.062537   0.008835   0.001675   0.445711  -0.019526
    14  H    0.002387  -0.014110  -0.003858   0.000130   0.404125  -0.015976
    15  H   -0.032208   0.006479   0.000105   0.001510   0.000642  -0.000072
    16  H   -0.018201   0.007667   0.000691  -0.005120  -0.001188   0.000061
              13         14         15         16
     1  C   -0.000963   0.000899   0.417056   0.429607
     2  C   -0.000046   0.000135  -0.054983  -0.042731
     3  N    0.000235   0.000384  -0.006564   0.002095
     4  H   -0.000047  -0.000016  -0.000983   0.000007
     5  H   -0.000006  -0.000008  -0.000249  -0.000121
     6  O    0.000018   0.000041   0.004349  -0.011404
     7  N   -0.008379   0.002387  -0.032208  -0.018201
     8  C   -0.062537  -0.014110   0.006479   0.007667
     9  O    0.008835  -0.003858   0.000105   0.000691
    10  H    0.001675   0.000130   0.001510  -0.005120
    11  C    0.445711   0.404125   0.000642  -0.001188
    12  H   -0.019526  -0.015976  -0.000072   0.000061
    13  H    0.580321  -0.017939   0.000032  -0.000177
    14  H   -0.017939   0.522795   0.000011   0.000007
    15  H    0.000032   0.000011   0.531758  -0.015860
    16  H   -0.000177   0.000007  -0.015860   0.499650
 Mulliken charges:
               1
     1  C   -0.086071
     2  C    0.568940
     3  N   -0.729726
     4  H    0.403215
     5  H    0.328920
     6  O   -0.621829
     7  N   -0.333245
     8  C    0.465457
     9  O   -0.652041
    10  H    0.317676
    11  C   -0.284872
    12  H    0.125798
    13  H    0.072791
    14  H    0.120993
    15  H    0.148977
    16  H    0.155017
 Sum of Mulliken charges =  -0.00000
 Mulliken charges with hydrogens summed into heavy atoms:
               1
     1  C    0.217923
     2  C    0.568940
     3  N    0.002408
     6  O   -0.621829
     7  N   -0.015569
     8  C    0.465457
     9  O   -0.652041
    11  C    0.034711
 Electronic spatial extent (au):  <R**2>=           1093.5568
 Charge=             -0.0000 electrons
 Dipole moment (field-independent basis, Debye):
    X=             -3.8630    Y=             -1.3947    Z=             -0.7154  Tot=              4.1689
 Quadrupole moment (field-independent basis, Debye-Ang):
   XX=            -56.2222   YY=            -44.2221   ZZ=            -47.5997
   XY=              9.5268   XZ=              6.0143   YZ=             -3.5830
 Traceless Quadrupole moment (field-independent basis, Debye-Ang):
   XX=             -6.8742   YY=              5.1259   ZZ=              1.7483
   XY=              9.5268   XZ=              6.0143   YZ=             -3.5830
 Octapole moment (field-independent basis, Debye-Ang**2):
  XXX=            -54.5398  YYY=             -1.5193  ZZZ=              0.5713  XYY=              8.0260
  XXY=             10.5962  XXZ=              0.8460  XZZ=              1.4859  YZZ=              0.2337
  YYZ=             -7.4466  XYZ=             -4.2457
 Hexadecapole moment (field-independent basis, Debye-Ang**3):
 XXXX=          -1084.4457 YYYY=           -220.5568 ZZZZ=           -133.9950 XXXY=             48.1130
 XXXZ=             18.9409 YYYX=             22.7411 YYYZ=             -5.6421 ZZZX=             -0.2186
 ZZZY=             -2.2585 XXYY=           -208.7890 XXZZ=           -188.8969 YYZZ=            -62.8476
 XXYZ=            -18.5158 YYXZ=              0.0090 ZZXY=              3.6869
 N-N= 3.830793440445D+02 E-N=-1.740909236324D+03  KE= 4.146022632603D+02
 No NMR shielding tensors so no spin-rotation constants.
 Leave Link  601 at Fri Jan 29 01:20:48 2021, MaxMem=  8053063680 cpu:              34.0 elap:               2.6
 (Enter /data2/software/Gaussian/g16_c01-gpu/g16/l9999.exe)
 Unable to Open any file for archive entry.
 1\1\GINC-CU07\SP\RHF\Jun-CC-pV5Z\C4H8N2O2\SHUCHONG\29-Jan-2021\0\\#p H
 F/jun-cc-pv5z\\SP\\0,1\C\C,1,1.5263449\N,2,1.3492092,1,114.3825\H,3,1.
 0090246,2,120.2705,1,0.,0\H,3,1.0034375,2,118.43258,1,180.,0\O,2,1.217
 8955,1,121.57778,3,-180.,0\N,1,1.4498581,2,113.064644,6,-115.756748,0\
 C,7,1.3523191,1,122.18944,2,-82.0997,0\O,8,1.2256927,7,121.48595,1,0.,
 0\H,7,1.0029218,1,118.69578,2,97.9003,0\C,8,1.5043987,7,116.45356,1,18
 0.,0\H,11,1.0871191,8,108.46917,7,127.12351,0\H,11,1.0875417,8,112.984
 47,7,5.3541781,0\H,11,1.0881154,8,108.38476,7,-115.85307,0\H,1,1.09018
 65,7,108.79567667,8,38.88664877,0\H,1,1.0851038,7,108.24431308,8,157.9
 9000975,0\\Version=AM64L-G16RevC.01\State=1-A\HF=-414.9890415\RMSD=3.6
 33e-09\Dipole=0.4175468,-1.0914912,-1.1508453\Quadrupole=-6.3684779,4.
 1708615,2.1976164,-0.1071318,7.9386934,1.9997197\PG=C01 [X(C4H8N2O2)]\
 \@
 The archive entry for this job was punched.


 WAR ES EIN GOTT DER DIESE ZEICHEN SCHRIEB?
          - LUDWIG BOLTZMANN, QUOTING GOETHE, ABOUT MAXWELL'S EQUATIONS.
 Job cpu time:       2 days  4 hours 19 minutes 28.0 seconds.
 Elapsed time:       0 days  3 hours 16 minutes 10.9 seconds.
 File lengths (MBytes):  RWF=    960 Int=      0 D2E=      0 Chk=    109 Scr=      1
 Normal termination of Gaussian 16 at Fri Jan 29 01:20:49 2021.
