 Entering Gaussian System, Link 0=g16
 Input=c7_MP2-jun-cc-pVQZ.gjf
 Output=c7_MP2-jun-cc-pVQZ.log
 Initial command:
 /home/share/software/programs/Gaussian/g16/l1.exe "/home/qr/scratch/Gau-376752.inp" -scrdir="/home/qr/scratch/"
 Entering Link 1 = /home/share/software/programs/Gaussian/g16/l1.exe PID=    376753.
  
 Copyright (c) 1988-2019, Gaussian, Inc.  All Rights Reserved.
  
 This is part of the Gaussian(R) 16 program.  It is based on
 the Gaussian(R) 09 system (copyright 2009, Gaussian, Inc.),
 the Gaussian(R) 03 system (copyright 2003, Gaussian, Inc.),
 the Gaussian(R) 98 system (copyright 1998, Gaussian, Inc.),
 the Gaussian(R) 94 system (copyright 1995, Gaussian, Inc.),
 the Gaussian 92(TM) system (copyright 1992, Gaussian, Inc.),
 the Gaussian 90(TM) system (copyright 1990, Gaussian, Inc.),
 the Gaussian 88(TM) system (copyright 1988, Gaussian, Inc.),
 the Gaussian 86(TM) system (copyright 1986, Carnegie Mellon
 University), and the Gaussian 82(TM) system (copyright 1983,
 Carnegie Mellon University). Gaussian is a federally registered
 trademark of Gaussian, Inc.
  
 This software contains proprietary and confidential information,
 including trade secrets, belonging to Gaussian, Inc.
  
 This software is provided under written license and may be
 used, copied, transmitted, or stored only in accord with that
 written license.
  
 The following legend is applicable only to US Government
 contracts under FAR:
  
                    RESTRICTED RIGHTS LEGEND
  
 Use, reproduction and disclosure by the US Government is
 subject to restrictions as set forth in subparagraphs (a)
 and (c) of the Commercial Computer Software - Restricted
 Rights clause in FAR 52.227-19.
  
 Gaussian, Inc.
 340 Quinnipiac St., Bldg. 40, Wallingford CT 06492
  
  
 ---------------------------------------------------------------
 Warning -- This program may not be used in any manner that
 competes with the business of Gaussian, Inc. or will provide
 assistance to any competitor of Gaussian, Inc.  The licensee
 of this program is prohibited from giving any competitor of
 Gaussian, Inc. access to this program.  By using this program,
 the user acknowledges that Gaussian, Inc. is engaged in the
 business of creating and licensing software in the field of
 computational chemistry and represents and warrants to the
 licensee that it is not a competitor of Gaussian, Inc. and that
 it will not use this program in any manner prohibited above.
 ---------------------------------------------------------------
  

 Cite this work as:
 Gaussian 16, Revision C.01,
 M. J. Frisch, G. W. Trucks, H. B. Schlegel, G. E. Scuseria, 
 M. A. Robb, J. R. Cheeseman, G. Scalmani, V. Barone, 
 G. A. Petersson, H. Nakatsuji, X. Li, M. Caricato, A. V. Marenich, 
 J. Bloino, B. G. Janesko, R. Gomperts, B. Mennucci, H. P. Hratchian, 
 J. V. Ortiz, A. F. Izmaylov, J. L. Sonnenberg, D. Williams-Young, 
 F. Ding, F. Lipparini, F. Egidi, J. Goings, B. Peng, A. Petrone, 
 T. Henderson, D. Ranasinghe, V. G. Zakrzewski, J. Gao, N. Rega, 
 G. Zheng, W. Liang, M. Hada, M. Ehara, K. Toyota, R. Fukuda, 
 J. Hasegawa, M. Ishida, T. Nakajima, Y. Honda, O. Kitao, H. Nakai, 
 T. Vreven, K. Throssell, J. A. Montgomery, Jr., J. E. Peralta, 
 F. Ogliaro, M. J. Bearpark, J. J. Heyd, E. N. Brothers, K. N. Kudin, 
 V. N. Staroverov, T. A. Keith, R. Kobayashi, J. Normand, 
 K. Raghavachari, A. P. Rendell, J. C. Burant, S. S. Iyengar, 
 J. Tomasi, M. Cossi, J. M. Millam, M. Klene, C. Adamo, R. Cammi, 
 J. W. Ochterski, R. L. Martin, K. Morokuma, O. Farkas, 
 J. B. Foresman, and D. J. Fox, Gaussian, Inc., Wallingford CT, 2019.
 
 ******************************************
 Gaussian 16:  ES64L-G16RevC.01  3-Jul-2019
                 8-Jan-2021 
 ******************************************
 %nprocshared=64
 Will use up to   64 processors via shared memory.
 %mem=60GB
 %chk=c7_MP2-jun-cc-pVQZ.chk
 ------------------
 #p MP2/jun-cc-pvqz
 ------------------
 1/38=1,172=1/1;
 2/12=2,17=6,18=5,40=1/2;
 3/5=16,6=2,7=60,11=9,25=1,30=1/1,2,3;
 4//1;
 5/5=2,38=5/2;
 8/10=1/1;
 9/16=-3/6;
 6/7=2,8=2,9=2,10=2/1;
 99/5=1,9=1/99;
 Leave Link    1 at Fri Jan  8 19:39:09 2021, MaxMem=  8053063680 cpu:               2.6 elap:               0.0
 (Enter /home/share/software/programs/Gaussian/g16/l101.exe)
 --
 SP
 --
 Symbolic Z-matrix:
 Charge =  0 Multiplicity = 1
 C                     0.        0.        0. 
 C                     0.        0.        1.52634 
 N                     1.22887   0.        2.08333 
 H                     2.0519    0.        1.49959 
 H                     1.29974   0.        3.08427 
 O                    -1.03756   0.        2.1641 
 N                     0.57967  -1.20143  -0.56801 
 C                     1.91545  -1.3613   -0.70551 
 O                     2.70389  -0.49131  -0.35364 
 H                    -0.03319  -1.93648  -0.86793 
 C                     2.37627  -2.6591   -1.31095 
 H                     3.03665  -2.4348   -2.14487 
 H                     1.5543   -3.28348  -1.6534 
 H                     2.95121  -3.20161  -0.5632 
 H                     0.56597   0.86302  -0.35125 
 H                    -1.02785   0.07464  -0.33971 
 
 ITRead=  0  0  0  0  0  0  0  0  0  0  0  0  0  0  0  0
 MicOpt= -1 -1 -1 -1 -1 -1 -1 -1 -1 -1 -1 -1 -1 -1 -1 -1
 NAtoms=     16 NQM=       16 NQMF=       0 NMMI=      0 NMMIF=      0
                NMic=       0 NMicF=      0.
                    Isotopes and Nuclear Properties:
 (Nuclear quadrupole moments (NQMom) in fm**2, nuclear magnetic moments (NMagM)
  in nuclear magnetons)

  Atom         1           2           3           4           5           6           7           8           9          10
 IAtWgt=          12          12          14           1           1          16          14          12          16           1
 AtmWgt=  12.0000000  12.0000000  14.0030740   1.0078250   1.0078250  15.9949146  14.0030740  12.0000000  15.9949146   1.0078250
 NucSpn=           0           0           2           1           1           0           2           0           0           1
 AtZEff=  -0.0000000  -0.0000000  -0.0000000  -0.0000000  -0.0000000  -0.0000000  -0.0000000  -0.0000000  -0.0000000  -0.0000000
 NQMom=    0.0000000   0.0000000   2.0440000   0.0000000   0.0000000   0.0000000   2.0440000   0.0000000   0.0000000   0.0000000
 NMagM=    0.0000000   0.0000000   0.4037610   2.7928460   2.7928460   0.0000000   0.4037610   0.0000000   0.0000000   2.7928460
 AtZNuc=   6.0000000   6.0000000   7.0000000   1.0000000   1.0000000   8.0000000   7.0000000   6.0000000   8.0000000   1.0000000

  Atom        11          12          13          14          15          16
 IAtWgt=          12           1           1           1           1           1
 AtmWgt=  12.0000000   1.0078250   1.0078250   1.0078250   1.0078250   1.0078250
 NucSpn=           0           1           1           1           1           1
 AtZEff=  -0.0000000  -0.0000000  -0.0000000  -0.0000000  -0.0000000  -0.0000000
 NQMom=    0.0000000   0.0000000   0.0000000   0.0000000   0.0000000   0.0000000
 NMagM=    0.0000000   2.7928460   2.7928460   2.7928460   2.7928460   2.7928460
 AtZNuc=   6.0000000   1.0000000   1.0000000   1.0000000   1.0000000   1.0000000
 Leave Link  101 at Fri Jan  8 19:39:09 2021, MaxMem=  8053063680 cpu:               7.3 elap:               0.2
 (Enter /home/share/software/programs/Gaussian/g16/l202.exe)
                          Input orientation:                          
 ---------------------------------------------------------------------
 Center     Atomic      Atomic             Coordinates (Angstroms)
 Number     Number       Type             X           Y           Z
 ---------------------------------------------------------------------
      1          6           0        0.000000    0.000000    0.000000
      2          6           0        0.000000    0.000000    1.526345
      3          7           0        1.228873    0.000000    2.083334
      4          1           0        2.051897    0.000000    1.499586
      5          1           0        1.299744    0.000000    3.084266
      6          8           0       -1.037562    0.000000    2.164103
      7          7           0        0.579675   -1.201428   -0.568010
      8          6           0        1.915452   -1.361296   -0.705513
      9          8           0        2.703889   -0.491309   -0.353641
     10          1           0       -0.033195   -1.936475   -0.867926
     11          6           0        2.376273   -2.659102   -1.310954
     12          1           0        3.036654   -2.434802   -2.144869
     13          1           0        1.554302   -3.283476   -1.653400
     14          1           0        2.951209   -3.201608   -0.563203
     15          1           0        0.565970    0.863022   -0.351252
     16          1           0       -1.027849    0.074643   -0.339713
 ---------------------------------------------------------------------
                    Distance matrix (angstroms):
                    1          2          3          4          5
     1  C    0.000000
     2  C    1.526345   0.000000
     3  N    2.418762   1.349209   0.000000
     4  H    2.541464   2.052072   1.009025   0.000000
     5  H    3.346943   2.028904   1.003437   1.754122   0.000000
     6  O    2.399974   1.217896   2.267873   3.160117   2.511911
     7  N    1.449858   2.483098   2.982367   2.808171   3.911655
     8  C    2.453535   3.240876   3.178394   2.595035   4.073653
     9  O    2.770823   3.329676   2.890658   2.025075   3.745959
    10  H    2.122341   3.079541   3.748691   3.701710   4.598530
    11  C    3.799487   4.557166   4.461899   3.882677   5.248590
    12  H    4.444096   5.350452   5.203271   4.492222   6.024032
    13  H    3.991341   4.827820   4.985007   4.579316   5.769877
    14  H    4.390573   4.829715   4.496765   3.913331   5.126564
    15  H    1.090186   2.142545   2.666731   2.525547   3.617459
    16  H    1.085104   2.131717   3.312027   3.587956   4.140880
                    6          7          8          9         10
     6  O    0.000000
     7  N    3.394602   0.000000
     8  C    4.336832   1.352319   0.000000
     9  O    4.536394   2.250002   1.225693   0.000000
    10  H    3.735222   1.002922   2.038243   3.137614   0.000000
    11  C    5.549875   2.429927   1.504399   2.392302   2.554212
    12  H    6.410517   3.169296   2.116897   2.663906   3.361976
    13  H    5.663241   2.542222   2.173406   3.287418   2.225203
    14  H    5.796446   3.102405   2.116552   2.729616   3.255777
    15  H    3.105339   2.075843   2.625679   2.530793   2.909146
    16  H    2.504947   2.065093   3.295262   3.774435   2.304982
                   11         12         13         14         15
    11  C    0.000000
    12  H    1.087119   0.000000
    13  H    1.087542   1.777401   0.000000
    14  H    1.088115   1.759818   1.773860   0.000000
    15  H    4.074749   4.494105   4.457110   4.717574   0.000000
    16  H    4.472663   5.106475   4.435114   5.159135   1.778183
                   16
    16  H    0.000000
 Stoichiometry    C4H8N2O2
 Framework group  C1[X(C4H8N2O2)]
 Deg. of freedom    42
 Full point group                 C1      NOp   1
 Largest Abelian subgroup         C1      NOp   1
 Largest concise Abelian subgroup C1      NOp   1
                         Standard orientation:                         
 ---------------------------------------------------------------------
 Center     Atomic      Atomic             Coordinates (Angstroms)
 Number     Number       Type             X           Y           Z
 ---------------------------------------------------------------------
      1          6           0        0.701219   -0.783335    0.755990
      2          6           0        1.725702   -0.000592   -0.061003
      3          7           0        1.388546    1.285127   -0.292560
      4          1           0        0.520546    1.655563    0.064487
      5          1           0        2.019367    1.856102   -0.824481
      6          8           0        2.754081   -0.517926   -0.458583
      7          7           0       -0.572151   -0.931257    0.078689
      8          6           0       -1.511384    0.041617    0.089899
      9          8           0       -1.328240    1.101504    0.677624
     10          1           0       -0.759472   -1.784736   -0.413587
     11          6           0       -2.785771   -0.248570   -0.655048
     12          1           0       -3.623642   -0.077479    0.016166
     13          1           0       -2.829370   -1.263780   -1.042597
     14          1           0       -2.867922    0.454505   -1.481446
     15          1           0        0.537913   -0.266976    1.702147
     16          1           0        1.102489   -1.773630    0.945059
 ---------------------------------------------------------------------
 Rotational constants (GHZ):           4.4565412           1.2288674           1.0964577
 Leave Link  202 at Fri Jan  8 19:39:09 2021, MaxMem=  8053063680 cpu:               2.4 elap:               0.1
 (Enter /home/share/software/programs/Gaussian/g16/l301.exe)
 Standard basis: Jun-CC-pVQZ (5D, 7F)
 Ernie: Thresh=  0.10000D-02 Tol=  0.10000D-05 Strict=F.
 Ernie:  24 primitive shells out of 392 were deleted.
 There are  1000 symmetry adapted cartesian basis functions of A   symmetry.
 There are   808 symmetry adapted basis functions of A   symmetry.
   808 basis functions,  1168 primitive gaussians,  1000 cartesian basis functions
    31 alpha electrons       31 beta electrons
       nuclear repulsion energy       383.0793439011 Hartrees.
 IExCor=    0 DFT=F Ex=HF Corr=None ExCW=0 ScaHFX=  1.000000
 ScaDFX=  1.000000  1.000000  1.000000  1.000000 ScalE2=  1.000000  1.000000
 IRadAn=      5 IRanWt=     -1 IRanGd=            0 ICorTp=0 IEmpDi=  4
 NAtoms=   16 NActive=   16 NUniq=   16 SFac= 1.00D+00 NAtFMM=   60 NAOKFM=F Big=F
 Integral buffers will be    131072 words long.
 Raffenetti 1 integral format.
 Two-electron integral symmetry is turned on.
 Leave Link  301 at Fri Jan  8 19:39:09 2021, MaxMem=  8053063680 cpu:               4.9 elap:               0.1
 (Enter /home/share/software/programs/Gaussian/g16/l302.exe)
 NPDir=0 NMtPBC=     1 NCelOv=     1 NCel=       1 NClECP=     1 NCelD=      1
         NCelK=      1 NCelE2=     1 NClLst=     1 CellRange=     0.0.
 One-electron integrals computed using PRISM.
 One-electron integral symmetry used in STVInt
 NBasis=   808 RedAO= T EigKep=  4.03D-06  NBF=   808
 NBsUse=   808 1.00D-06 EigRej= -1.00D+00 NBFU=   808
 Leave Link  302 at Fri Jan  8 19:39:11 2021, MaxMem=  8053063680 cpu:              89.9 elap:               1.5
 (Enter /home/share/software/programs/Gaussian/g16/l303.exe)
 DipDrv:  MaxL=1.
 Leave Link  303 at Fri Jan  8 19:39:11 2021, MaxMem=  8053063680 cpu:               7.9 elap:               0.2
 (Enter /home/share/software/programs/Gaussian/g16/l401.exe)
 ExpMin= 3.22D-02 ExpMax= 6.14D+04 ExpMxC= 5.91D+02 IAcc=3 IRadAn=         5 AccDes= 0.00D+00
 Harris functional with IExCor=  205 and IRadAn=       5 diagonalized for initial guess.
 HarFok:  IExCor=  205 AccDes= 0.00D+00 IRadAn=         5 IDoV= 1 UseB2=F ITyADJ=14
 ICtDFT=  3500011 ScaDFX=  1.000000  1.000000  1.000000  1.000000
 FoFCou: FMM=F IPFlag=           0 FMFlag=      100000 FMFlg1=           0
         NFxFlg=           0 DoJE=T BraDBF=F KetDBF=T FulRan=T
         wScrn=  0.000000 ICntrl=       500 IOpCl=  0 I1Cent=   200000004 NGrid=           0
         NMat0=    1 NMatS0=      1 NMatT0=    0 NMatD0=    1 NMtDS0=    0 NMtDT0=    0
 Petite list used in FoFCou.
 Harris En= -415.470584179204    
 JPrj=0 DoOrth=F DoCkMO=F.
 Leave Link  401 at Fri Jan  8 19:39:14 2021, MaxMem=  8053063680 cpu:             134.6 elap:               2.2
 (Enter /home/share/software/programs/Gaussian/g16/l502.exe)
 Integral symmetry usage will be decided dynamically.
 Closed shell SCF:
 Using DIIS extrapolation, IDIIS=  1040.
 NGot=  8053063680 LenX=  8050991610 LenY=  8049990610
 Requested convergence on RMS density matrix=1.00D-08 within 128 cycles.
 Requested convergence on MAX density matrix=1.00D-06.
 Requested convergence on             energy=1.00D-06.
 No special actions if energy rises.
 Fock matrices will be formed incrementally for  20 cycles.

 Cycle   1  Pass 1  IDiag  1:
 FoFJK:  IHMeth= 1 ICntrl=       0 DoSepK=F KAlg= 0 I1Cent=           0 FoldK=F
 IRaf= 930000000 NMat=       1 IRICut=       1 DoRegI=T DoRafI=F ISym2E= 0 IDoP0=0 IntGTp=1.
 FoFCou: FMM=F IPFlag=           0 FMFlag=      100000 FMFlg1=           0
         NFxFlg=           0 DoJE=F BraDBF=F KetDBF=F FulRan=T
         wScrn=  0.000000 ICntrl=         0 IOpCl=  0 I1Cent=           0 NGrid=           0
         NMat0=    1 NMatS0=      1 NMatT0=    0 NMatD0=    1 NMtDS0=    0 NMtDT0=    0
 Symmetry not used in FoFCou.
 E= -414.587581749976    
 DIIS: error= 1.56D-02 at cycle   1 NSaved=   1.
 NSaved= 1 IEnMin= 1 EnMin= -414.587581749976     IErMin= 1 ErrMin= 1.56D-02
 ErrMax= 1.56D-02  0.00D+00 EMaxC= 1.00D-01 BMatC= 9.84D-01 BMatP= 9.84D-01
 IDIUse=3 WtCom= 8.44D-01 WtEn= 1.56D-01
 Coeff-Com:  0.100D+01
 Coeff-En:   0.100D+01
 Coeff:      0.100D+01
 Gap=     0.559 Goal=   None    Shift=    0.000
 GapD=    0.559 DampG=2.000 DampE=0.500 DampFc=1.0000 IDamp=-1.
 RMSDP=7.89D-04 MaxDP=8.23D-02              OVMax= 1.32D-01

 Cycle   2  Pass 1  IDiag  1:
 RMSU=  7.61D-04    CP:  9.36D-01
 E= -414.907420778212     Delta-E=       -0.319839028237 Rises=F Damp=F
 DIIS: error= 7.04D-03 at cycle   2 NSaved=   2.
 NSaved= 2 IEnMin= 2 EnMin= -414.907420778212     IErMin= 2 ErrMin= 7.04D-03
 ErrMax= 7.04D-03  0.00D+00 EMaxC= 1.00D-01 BMatC= 1.13D-01 BMatP= 9.84D-01
 IDIUse=3 WtCom= 9.30D-01 WtEn= 7.04D-02
 Coeff-Com:  0.176D+00 0.824D+00
 Coeff-En:   0.000D+00 0.100D+01
 Coeff:      0.164D+00 0.836D+00
 Gap=     0.478 Goal=   None    Shift=    0.000
 RMSDP=2.72D-04 MaxDP=3.10D-02 DE=-3.20D-01 OVMax= 5.70D-02

 Cycle   3  Pass 1  IDiag  1:
 RMSU=  2.54D-04    CP:  9.43D-01  8.73D-01
 E= -414.971536796701     Delta-E=       -0.064116018489 Rises=F Damp=F
 DIIS: error= 3.03D-03 at cycle   3 NSaved=   3.
 NSaved= 3 IEnMin= 3 EnMin= -414.971536796701     IErMin= 3 ErrMin= 3.03D-03
 ErrMax= 3.03D-03  0.00D+00 EMaxC= 1.00D-01 BMatC= 1.77D-02 BMatP= 1.13D-01
 IDIUse=3 WtCom= 9.70D-01 WtEn= 3.03D-02
 Coeff-Com: -0.183D-01 0.255D+00 0.763D+00
 Coeff-En:   0.000D+00 0.000D+00 0.100D+01
 Coeff:     -0.178D-01 0.247D+00 0.770D+00
 Gap=     0.437 Goal=   None    Shift=    0.000
 RMSDP=7.46D-05 MaxDP=8.40D-03 DE=-6.41D-02 OVMax= 2.47D-02

 Cycle   4  Pass 1  IDiag  1:
 RMSU=  5.57D-05    CP:  9.41D-01  9.27D-01  8.92D-01
 E= -414.982162175341     Delta-E=       -0.010625378640 Rises=F Damp=F
 DIIS: error= 1.02D-03 at cycle   4 NSaved=   4.
 NSaved= 4 IEnMin= 4 EnMin= -414.982162175341     IErMin= 4 ErrMin= 1.02D-03
 ErrMax= 1.02D-03  0.00D+00 EMaxC= 1.00D-01 BMatC= 8.28D-04 BMatP= 1.77D-02
 IDIUse=3 WtCom= 9.90D-01 WtEn= 1.02D-02
 Coeff-Com: -0.111D-01 0.512D-01 0.248D+00 0.712D+00
 Coeff-En:   0.000D+00 0.000D+00 0.000D+00 0.100D+01
 Coeff:     -0.110D-01 0.507D-01 0.245D+00 0.715D+00
 Gap=     0.428 Goal=   None    Shift=    0.000
 RMSDP=1.92D-05 MaxDP=1.48D-03 DE=-1.06D-02 OVMax= 4.60D-03

 Cycle   5  Pass 1  IDiag  1:
 RMSU=  1.62D-05    CP:  9.41D-01  9.27D-01  9.20D-01  8.65D-01
 E= -414.982904970536     Delta-E=       -0.000742795195 Rises=F Damp=F
 DIIS: error= 2.06D-04 at cycle   5 NSaved=   5.
 NSaved= 5 IEnMin= 5 EnMin= -414.982904970536     IErMin= 5 ErrMin= 2.06D-04
 ErrMax= 2.06D-04  0.00D+00 EMaxC= 1.00D-01 BMatC= 4.12D-05 BMatP= 8.28D-04
 IDIUse=3 WtCom= 9.98D-01 WtEn= 2.06D-03
 Coeff-Com:  0.247D-02-0.242D-01-0.908D-01-0.600D-01 0.117D+01
 Coeff-En:   0.000D+00 0.000D+00 0.000D+00 0.000D+00 0.100D+01
 Coeff:      0.247D-02-0.241D-01-0.906D-01-0.599D-01 0.117D+01
 Gap=     0.428 Goal=   None    Shift=    0.000
 RMSDP=1.12D-05 MaxDP=7.67D-04 DE=-7.43D-04 OVMax= 4.48D-03

 Cycle   6  Pass 1  IDiag  1:
 RMSU=  5.06D-06    CP:  9.41D-01  9.27D-01  9.34D-01  9.91D-01  1.38D+00
 E= -414.983012180364     Delta-E=       -0.000107209828 Rises=F Damp=F
 DIIS: error= 7.15D-05 at cycle   6 NSaved=   6.
 NSaved= 6 IEnMin= 6 EnMin= -414.983012180364     IErMin= 6 ErrMin= 7.15D-05
 ErrMax= 7.15D-05  0.00D+00 EMaxC= 1.00D-01 BMatC= 7.08D-06 BMatP= 4.12D-05
 IDIUse=1 WtCom= 1.00D+00 WtEn= 0.00D+00
 Coeff-Com:  0.151D-02-0.984D-02-0.393D-01-0.923D-01 0.209D+00 0.931D+00
 Coeff:      0.151D-02-0.984D-02-0.393D-01-0.923D-01 0.209D+00 0.931D+00
 Gap=     0.429 Goal=   None    Shift=    0.000
 RMSDP=3.80D-06 MaxDP=2.23D-04 DE=-1.07D-04 OVMax= 1.51D-03

 Cycle   7  Pass 1  IDiag  1:
 RMSU=  1.88D-06    CP:  9.41D-01  9.27D-01  9.38D-01  1.02D+00  1.53D+00
                    CP:  1.25D+00
 E= -414.983027046631     Delta-E=       -0.000014866267 Rises=F Damp=F
 DIIS: error= 3.17D-05 at cycle   7 NSaved=   7.
 NSaved= 7 IEnMin= 7 EnMin= -414.983027046631     IErMin= 7 ErrMin= 3.17D-05
 ErrMax= 3.17D-05  0.00D+00 EMaxC= 1.00D-01 BMatC= 9.26D-07 BMatP= 7.08D-06
 IDIUse=1 WtCom= 1.00D+00 WtEn= 0.00D+00
 Coeff-Com: -0.348D-03 0.356D-02 0.156D-01 0.300D-02-0.156D+00-0.455D-01
 Coeff-Com:  0.118D+01
 Coeff:     -0.348D-03 0.356D-02 0.156D-01 0.300D-02-0.156D+00-0.455D-01
 Coeff:      0.118D+01
 Gap=     0.429 Goal=   None    Shift=    0.000
 RMSDP=1.83D-06 MaxDP=1.00D-04 DE=-1.49D-05 OVMax= 9.06D-04

 Cycle   8  Pass 1  IDiag  1:
 RMSU=  7.53D-07    CP:  9.41D-01  9.27D-01  9.39D-01  1.02D+00  1.58D+00
                    CP:  1.47D+00  1.43D+00
 E= -414.983029957387     Delta-E=       -0.000002910756 Rises=F Damp=F
 DIIS: error= 9.63D-06 at cycle   8 NSaved=   8.
 NSaved= 8 IEnMin= 8 EnMin= -414.983029957387     IErMin= 8 ErrMin= 9.63D-06
 ErrMax= 9.63D-06  0.00D+00 EMaxC= 1.00D-01 BMatC= 1.20D-07 BMatP= 9.26D-07
 IDIUse=1 WtCom= 1.00D+00 WtEn= 0.00D+00
 Coeff-Com: -0.167D-03 0.110D-02 0.434D-02 0.761D-02-0.124D-01-0.121D+00
 Coeff-Com: -0.681D-01 0.119D+01
 Coeff:     -0.167D-03 0.110D-02 0.434D-02 0.761D-02-0.124D-01-0.121D+00
 Coeff:     -0.681D-01 0.119D+01
 Gap=     0.429 Goal=   None    Shift=    0.000
 RMSDP=6.89D-07 MaxDP=3.32D-05 DE=-2.91D-06 OVMax= 3.02D-04

 Cycle   9  Pass 1  IDiag  1:
 RMSU=  2.41D-07    CP:  9.41D-01  9.27D-01  9.39D-01  1.02D+00  1.60D+00
                    CP:  1.53D+00  1.65D+00  1.42D+00
 E= -414.983030327093     Delta-E=       -0.000000369706 Rises=F Damp=F
 DIIS: error= 4.04D-06 at cycle   9 NSaved=   9.
 NSaved= 9 IEnMin= 9 EnMin= -414.983030327093     IErMin= 9 ErrMin= 4.04D-06
 ErrMax= 4.04D-06  0.00D+00 EMaxC= 1.00D-01 BMatC= 1.64D-08 BMatP= 1.20D-07
 IDIUse=1 WtCom= 1.00D+00 WtEn= 0.00D+00
 Coeff-Com:  0.123D-04-0.233D-03-0.104D-02 0.140D-03 0.190D-01-0.164D-01
 Coeff-Com: -0.152D+00 0.209D+00 0.941D+00
 Coeff:      0.123D-04-0.233D-03-0.104D-02 0.140D-03 0.190D-01-0.164D-01
 Coeff:     -0.152D+00 0.209D+00 0.941D+00
 Gap=     0.429 Goal=   None    Shift=    0.000
 RMSDP=1.82D-07 MaxDP=1.48D-05 DE=-3.70D-07 OVMax= 8.71D-05

 Cycle  10  Pass 1  IDiag  1:
 RMSU=  9.19D-08    CP:  9.41D-01  9.27D-01  9.39D-01  1.02D+00  1.60D+00
                    CP:  1.53D+00  1.68D+00  1.58D+00  1.21D+00
 E= -414.983030359925     Delta-E=       -0.000000032832 Rises=F Damp=F
 DIIS: error= 1.38D-06 at cycle  10 NSaved=  10.
 NSaved=10 IEnMin=10 EnMin= -414.983030359925     IErMin=10 ErrMin= 1.38D-06
 ErrMax= 1.38D-06  0.00D+00 EMaxC= 1.00D-01 BMatC= 2.72D-09 BMatP= 1.64D-08
 IDIUse=1 WtCom= 1.00D+00 WtEn= 0.00D+00
 Coeff-Com:  0.289D-04-0.231D-03-0.844D-03-0.153D-02 0.588D-02 0.169D-01
 Coeff-Com: -0.162D-01-0.154D+00 0.169D+00 0.981D+00
 Coeff:      0.289D-04-0.231D-03-0.844D-03-0.153D-02 0.588D-02 0.169D-01
 Coeff:     -0.162D-01-0.154D+00 0.169D+00 0.981D+00
 Gap=     0.429 Goal=   None    Shift=    0.000
 RMSDP=7.22D-08 MaxDP=5.87D-06 DE=-3.28D-08 OVMax= 2.15D-05

 Cycle  11  Pass 1  IDiag  1:
 RMSU=  3.43D-08    CP:  9.41D-01  9.27D-01  9.40D-01  1.02D+00  1.60D+00
                    CP:  1.53D+00  1.69D+00  1.63D+00  1.40D+00  1.22D+00
 E= -414.983030365010     Delta-E=       -0.000000005085 Rises=F Damp=F
 DIIS: error= 5.35D-07 at cycle  11 NSaved=  11.
 NSaved=11 IEnMin=11 EnMin= -414.983030365010     IErMin=11 ErrMin= 5.35D-07
 ErrMax= 5.35D-07  0.00D+00 EMaxC= 1.00D-01 BMatC= 3.14D-10 BMatP= 2.72D-09
 IDIUse=1 WtCom= 1.00D+00 WtEn= 0.00D+00
 Coeff-Com:  0.170D-05-0.171D-05 0.712D-04-0.278D-03-0.205D-02 0.440D-02
 Coeff-Com:  0.189D-01-0.439D-01-0.124D+00 0.113D+00 0.103D+01
 Coeff:      0.170D-05-0.171D-05 0.712D-04-0.278D-03-0.205D-02 0.440D-02
 Coeff:      0.189D-01-0.439D-01-0.124D+00 0.113D+00 0.103D+01
 Gap=     0.429 Goal=   None    Shift=    0.000
 RMSDP=2.77D-08 MaxDP=1.78D-06 DE=-5.08D-09 OVMax= 7.77D-06

 Cycle  12  Pass 1  IDiag  1:
 RMSU=  1.35D-08    CP:  9.41D-01  9.27D-01  9.40D-01  1.02D+00  1.60D+00
                    CP:  1.53D+00  1.69D+00  1.63D+00  1.44D+00  1.39D+00
                    CP:  1.28D+00
 E= -414.983030365651     Delta-E=       -0.000000000641 Rises=F Damp=F
 DIIS: error= 1.21D-07 at cycle  12 NSaved=  12.
 NSaved=12 IEnMin=12 EnMin= -414.983030365651     IErMin=12 ErrMin= 1.21D-07
 ErrMax= 1.21D-07  0.00D+00 EMaxC= 1.00D-01 BMatC= 2.67D-11 BMatP= 3.14D-10
 IDIUse=1 WtCom= 1.00D+00 WtEn= 0.00D+00
 Coeff-Com: -0.228D-05 0.192D-04 0.847D-04 0.120D-03-0.671D-03-0.111D-02
 Coeff-Com:  0.228D-02 0.144D-01-0.297D-01-0.959D-01 0.933D-01 0.102D+01
 Coeff:     -0.228D-05 0.192D-04 0.847D-04 0.120D-03-0.671D-03-0.111D-02
 Coeff:      0.228D-02 0.144D-01-0.297D-01-0.959D-01 0.933D-01 0.102D+01
 Gap=     0.429 Goal=   None    Shift=    0.000
 RMSDP=8.41D-09 MaxDP=5.07D-07 DE=-6.41D-10 OVMax= 2.74D-06

 SCF Done:  E(RHF) =  -414.983030366     A.U. after   12 cycles
            NFock= 12  Conv=0.84D-08     -V/T= 2.0010
 KE= 4.145785224344D+02 PE=-1.740865744372D+03 EE= 5.282248476707D+02
 Leave Link  502 at Fri Jan  8 19:43:45 2021, MaxMem=  8053063680 cpu:           17353.3 elap:             271.3
 (Enter /home/share/software/programs/Gaussian/g16/l801.exe)
 ExpMin= 3.22D-02 ExpMax= 6.14D+04 ExpMxC= 5.91D+02 IAcc=3 IRadAn=         5 AccDes= 0.00D+00
 HarFok:  IExCor=  205 AccDes= 0.00D+00 IRadAn=         5 IDoV=-2 UseB2=F ITyADJ=14
 ICtDFT= 12500011 ScaDFX=  1.000000  1.000000  1.000000  1.000000
 DSYEVD-2 returned Info=         143 IAlg= 4 N=    71 NDim=    71 NE2=   113395124 trying  DSYEV.
 DSYEVD-2 returned Info=        2663 IAlg= 4 N=    71 NDim=    71 NE2=   113395124 trying  DSYEV.
 DSYEVD-2 returned Info=        2663 IAlg= 4 N=    71 NDim=    71 NE2=   113395124 trying  DSYEV.
 DSYEVD-2 returned Info=        2663 IAlg= 4 N=    71 NDim=    71 NE2=   113395124 trying  DSYEV.
 Largest valence mixing into a core orbital is  1.85D-04
 Largest core mixing into a valence orbital is  2.89D-05
 Range of M.O.s used for correlation:     9   808
 NBasis=   808 NAE=    31 NBE=    31 NFC=     8 NFV=     0
 NROrb=    800 NOA=    23 NOB=    23 NVA=   777 NVB=   777

 **** Warning!!: The largest alpha MO coefficient is  0.63014618D+02

 Leave Link  801 at Fri Jan  8 19:43:47 2021, MaxMem=  8053063680 cpu:              34.8 elap:               0.7
 (Enter /home/share/software/programs/Gaussian/g16/l906.exe)
 FulOut=F Deriv=F AODrv=F NAtomX=    16
   MMem=           6  MDisk=          23 MDiskD=          23
  W3Min=    17871000 MinDsk=    22436267 NBas6D=        1000
 NBas2D=      503692    NTT=      500500    LW2=     4508827
    MDV=  8050314805 MDiskM=       17885 NBas2p=      451058
 Disk-based method using OVN memory for 23 occupieds at a time.
 Estimated scratch disk usage= 26320104622 words.
 IMap=   1   2   3   4   5   6   7   8   9  10  11  12  13  14  15  16  17  18  19  20
 IMap=  21  22  23
 Actual    scratch disk usage= 24184155310 words.
 JobTyp=1 Pass  1:  I=   1 to  23 NPSUse= 64 ParTrn=T ParDer=T DoDerP=F.
 Spin components of T(2) and E(2):
     alpha-alpha T2 =       0.5818636589D-01 E2=     -0.2009922799D+00
     alpha-beta  T2 =       0.3251871210D+00 E2=     -0.1244682861D+01
     beta-beta   T2 =       0.5818636589D-01 E2=     -0.2009922799D+00
 The integrals were generated   1 times.
 ANorm=    0.1200649763D+01
 E2 =    -0.1646667421D+01 EUMP2 =    -0.41662969778668D+03
 Leave Link  906 at Fri Jan  8 20:27:43 2021, MaxMem=  8053063680 cpu:          167121.4 elap:            2636.1
 (Enter /home/share/software/programs/Gaussian/g16/l601.exe)
 Copying SCF densities to generalized density rwf, IOpCl= 0 IROHF=0.

 **********************************************************************

            Population analysis using the SCF Density.

 **********************************************************************

 Orbital symmetries:
       Occupied  (A) (A) (A) (A) (A) (A) (A) (A) (A) (A) (A) (A)
                 (A) (A) (A) (A) (A) (A) (A) (A) (A) (A) (A) (A)
                 (A) (A) (A) (A) (A) (A) (A)
       Virtual   (A) (A) (A) (A) (A) (A) (A) (A) (A) (A) (A) (A)
                 (A) (A) (A) (A) (A) (A) (A) (A) (A) (A) (A) (A)
                 (A) (A) (A) (A) (A) (A) (A) (A) (A) (A) (A) (A)
                 (A) (A) (A) (A) (A) (A) (A) (A) (A) (A) (A) (A)
                 (A) (A) (A) (A) (A) (A) (A) (A) (A) (A) (A) (A)
                 (A) (A) (A) (A) (A) (A) (A) (A) (A) (A) (A) (A)
                 (A) (A) (A) (A) (A) (A) (A) (A) (A) (A) (A) (A)
                 (A) (A) (A) (A) (A) (A) (A) (A) (A) (A) (A) (A)
                 (A) (A) (A) (A) (A) (A) (A) (A) (A) (A) (A) (A)
                 (A) (A) (A) (A) (A) (A) (A) (A) (A) (A) (A) (A)
                 (A) (A) (A) (A) (A) (A) (A) (A) (A) (A) (A) (A)
                 (A) (A) (A) (A) (A) (A) (A) (A) (A) (A) (A) (A)
                 (A) (A) (A) (A) (A) (A) (A) (A) (A) (A) (A) (A)
                 (A) (A) (A) (A) (A) (A) (A) (A) (A) (A) (A) (A)
                 (A) (A) (A) (A) (A) (A) (A) (A) (A) (A) (A) (A)
                 (A) (A) (A) (A) (A) (A) (A) (A) (A) (A) (A) (A)
                 (A) (A) (A) (A) (A) (A) (A) (A) (A) (A) (A) (A)
                 (A) (A) (A) (A) (A) (A) (A) (A) (A) (A) (A) (A)
                 (A) (A) (A) (A) (A) (A) (A) (A) (A) (A) (A) (A)
                 (A) (A) (A) (A) (A) (A) (A) (A) (A) (A) (A) (A)
                 (A) (A) (A) (A) (A) (A) (A) (A) (A) (A) (A) (A)
                 (A) (A) (A) (A) (A) (A) (A) (A) (A) (A) (A) (A)
                 (A) (A) (A) (A) (A) (A) (A) (A) (A) (A) (A) (A)
                 (A) (A) (A) (A) (A) (A) (A) (A) (A) (A) (A) (A)
                 (A) (A) (A) (A) (A) (A) (A) (A) (A) (A) (A) (A)
                 (A) (A) (A) (A) (A) (A) (A) (A) (A) (A) (A) (A)
                 (A) (A) (A) (A) (A) (A) (A) (A) (A) (A) (A) (A)
                 (A) (A) (A) (A) (A) (A) (A) (A) (A) (A) (A) (A)
                 (A) (A) (A) (A) (A) (A) (A) (A) (A) (A) (A) (A)
                 (A) (A) (A) (A) (A) (A) (A) (A) (A) (A) (A) (A)
                 (A) (A) (A) (A) (A) (A) (A) (A) (A) (A) (A) (A)
                 (A) (A) (A) (A) (A) (A) (A) (A) (A) (A) (A) (A)
                 (A) (A) (A) (A) (A) (A) (A) (A) (A) (A) (A) (A)
                 (A) (A) (A) (A) (A) (A) (A) (A) (A) (A) (A) (A)
                 (A) (A) (A) (A) (A) (A) (A) (A) (A) (A) (A) (A)
                 (A) (A) (A) (A) (A) (A) (A) (A) (A) (A) (A) (A)
                 (A) (A) (A) (A) (A) (A) (A) (A) (A) (A) (A) (A)
                 (A) (A) (A) (A) (A) (A) (A) (A) (A) (A) (A) (A)
                 (A) (A) (A) (A) (A) (A) (A) (A) (A) (A) (A) (A)
                 (A) (A) (A) (A) (A) (A) (A) (A) (A) (A) (A) (A)
                 (A) (A) (A) (A) (A) (A) (A) (A) (A) (A) (A) (A)
                 (A) (A) (A) (A) (A) (A) (A) (A) (A) (A) (A) (A)
                 (A) (A) (A) (A) (A) (A) (A) (A) (A) (A) (A) (A)
                 (A) (A) (A) (A) (A) (A) (A) (A) (A) (A) (A) (A)
                 (A) (A) (A) (A) (A) (A) (A) (A) (A) (A) (A) (A)
                 (A) (A) (A) (A) (A) (A) (A) (A) (A) (A) (A) (A)
                 (A) (A) (A) (A) (A) (A) (A) (A) (A) (A) (A) (A)
                 (A) (A) (A) (A) (A) (A) (A) (A) (A) (A) (A) (A)
                 (A) (A) (A) (A) (A) (A) (A) (A) (A) (A) (A) (A)
                 (A) (A) (A) (A) (A) (A) (A) (A) (A) (A) (A) (A)
                 (A) (A) (A) (A) (A) (A) (A) (A) (A) (A) (A) (A)
                 (A) (A) (A) (A) (A) (A) (A) (A) (A) (A) (A) (A)
                 (A) (A) (A) (A) (A) (A) (A) (A) (A) (A) (A) (A)
                 (A) (A) (A) (A) (A) (A) (A) (A) (A) (A) (A) (A)
                 (A) (A) (A) (A) (A) (A) (A) (A) (A) (A) (A) (A)
                 (A) (A) (A) (A) (A) (A) (A) (A) (A) (A) (A) (A)
                 (A) (A) (A) (A) (A) (A) (A) (A) (A) (A) (A) (A)
                 (A) (A) (A) (A) (A) (A) (A) (A) (A) (A) (A) (A)
                 (A) (A) (A) (A) (A) (A) (A) (A) (A) (A) (A) (A)
                 (A) (A) (A) (A) (A) (A) (A) (A) (A) (A) (A) (A)
                 (A) (A) (A) (A) (A) (A) (A) (A) (A) (A) (A) (A)
                 (A) (A) (A) (A) (A) (A) (A) (A) (A) (A) (A) (A)
                 (A) (A) (A) (A) (A) (A) (A) (A) (A) (A) (A) (A)
                 (A) (A) (A) (A) (A) (A) (A) (A) (A) (A) (A) (A)
                 (A) (A) (A) (A) (A) (A) (A) (A) (A)
 The electronic state is 1-A.
 Alpha  occ. eigenvalues --  -20.53243 -20.51509 -15.60823 -15.57018 -11.36897
 Alpha  occ. eigenvalues --  -11.34619 -11.28328 -11.25067  -1.40305  -1.37847
 Alpha  occ. eigenvalues --   -1.25670  -1.20606  -1.04378  -0.97468  -0.82830
 Alpha  occ. eigenvalues --   -0.78992  -0.73364  -0.72027  -0.68010  -0.66469
 Alpha  occ. eigenvalues --   -0.62803  -0.60362  -0.59798  -0.58600  -0.56566
 Alpha  occ. eigenvalues --   -0.54129  -0.53701  -0.45272  -0.44326  -0.40787
 Alpha  occ. eigenvalues --   -0.40064
 Alpha virt. eigenvalues --    0.02827   0.04320   0.05072   0.05325   0.06545
 Alpha virt. eigenvalues --    0.06746   0.07489   0.08191   0.08823   0.09701
 Alpha virt. eigenvalues --    0.10181   0.10713   0.12158   0.12406   0.13829
 Alpha virt. eigenvalues --    0.14149   0.14879   0.15020   0.15906   0.16515
 Alpha virt. eigenvalues --    0.16543   0.18012   0.18189   0.18827   0.19510
 Alpha virt. eigenvalues --    0.20008   0.20378   0.20740   0.21542   0.22114
 Alpha virt. eigenvalues --    0.22955   0.23675   0.24188   0.25051   0.25424
 Alpha virt. eigenvalues --    0.25855   0.26057   0.27019   0.27402   0.28331
 Alpha virt. eigenvalues --    0.28728   0.30369   0.30905   0.31313   0.32349
 Alpha virt. eigenvalues --    0.32965   0.34180   0.34646   0.34894   0.35385
 Alpha virt. eigenvalues --    0.35931   0.36422   0.37396   0.38200   0.38553
 Alpha virt. eigenvalues --    0.39337   0.40053   0.41723   0.42233   0.42379
 Alpha virt. eigenvalues --    0.42850   0.43359   0.44726   0.44968   0.45533
 Alpha virt. eigenvalues --    0.46478   0.47572   0.47749   0.48426   0.49744
 Alpha virt. eigenvalues --    0.50068   0.50862   0.51597   0.52341   0.53158
 Alpha virt. eigenvalues --    0.53759   0.53858   0.54616   0.55954   0.56191
 Alpha virt. eigenvalues --    0.57637   0.58309   0.59085   0.59737   0.60535
 Alpha virt. eigenvalues --    0.61812   0.62482   0.62975   0.63805   0.64520
 Alpha virt. eigenvalues --    0.65306   0.65720   0.66841   0.68183   0.68299
 Alpha virt. eigenvalues --    0.68491   0.69238   0.70713   0.70745   0.71425
 Alpha virt. eigenvalues --    0.72853   0.73470   0.73918   0.75025   0.75933
 Alpha virt. eigenvalues --    0.76494   0.78832   0.79114   0.79895   0.80013
 Alpha virt. eigenvalues --    0.81004   0.82455   0.83437   0.84203   0.85763
 Alpha virt. eigenvalues --    0.85978   0.86618   0.87464   0.88843   0.89890
 Alpha virt. eigenvalues --    0.90446   0.91428   0.93069   0.93620   0.93959
 Alpha virt. eigenvalues --    0.95083   0.95141   0.96137   0.97364   0.98040
 Alpha virt. eigenvalues --    0.98914   0.99878   1.00571   1.01099   1.02299
 Alpha virt. eigenvalues --    1.03044   1.04756   1.05598   1.05878   1.06857
 Alpha virt. eigenvalues --    1.07190   1.08529   1.08704   1.10193   1.10670
 Alpha virt. eigenvalues --    1.11489   1.12125   1.13000   1.13411   1.14515
 Alpha virt. eigenvalues --    1.16538   1.16941   1.18006   1.18644   1.19071
 Alpha virt. eigenvalues --    1.20097   1.21750   1.22261   1.22905   1.24223
 Alpha virt. eigenvalues --    1.24916   1.25293   1.26783   1.27779   1.28247
 Alpha virt. eigenvalues --    1.29348   1.30454   1.30581   1.31207   1.31969
 Alpha virt. eigenvalues --    1.32678   1.33821   1.34267   1.35175   1.36263
 Alpha virt. eigenvalues --    1.36738   1.38069   1.38724   1.40275   1.41909
 Alpha virt. eigenvalues --    1.42969   1.44275   1.44495   1.44845   1.45787
 Alpha virt. eigenvalues --    1.48563   1.49132   1.50773   1.51160   1.52801
 Alpha virt. eigenvalues --    1.54353   1.55422   1.56081   1.58039   1.58505
 Alpha virt. eigenvalues --    1.59105   1.61108   1.61900   1.62958   1.63366
 Alpha virt. eigenvalues --    1.65056   1.66174   1.67391   1.68111   1.69743
 Alpha virt. eigenvalues --    1.70846   1.73128   1.74166   1.75345   1.76085
 Alpha virt. eigenvalues --    1.77006   1.78127   1.78939   1.80008   1.80782
 Alpha virt. eigenvalues --    1.81471   1.83415   1.84230   1.85805   1.86881
 Alpha virt. eigenvalues --    1.87841   1.88703   1.89860   1.90957   1.91347
 Alpha virt. eigenvalues --    1.92051   1.94274   1.94508   1.94879   1.97323
 Alpha virt. eigenvalues --    1.98195   1.99189   2.00206   2.01086   2.02503
 Alpha virt. eigenvalues --    2.04049   2.04921   2.05163   2.06057   2.08176
 Alpha virt. eigenvalues --    2.09533   2.11051   2.11614   2.13942   2.14531
 Alpha virt. eigenvalues --    2.16850   2.18638   2.19833   2.21331   2.22438
 Alpha virt. eigenvalues --    2.22734   2.23673   2.25182   2.26044   2.27537
 Alpha virt. eigenvalues --    2.28969   2.30223   2.31479   2.31912   2.33922
 Alpha virt. eigenvalues --    2.34399   2.35844   2.36451   2.37135   2.40416
 Alpha virt. eigenvalues --    2.41283   2.43274   2.44123   2.45111   2.46827
 Alpha virt. eigenvalues --    2.47751   2.50592   2.51565   2.53553   2.56075
 Alpha virt. eigenvalues --    2.56967   2.58775   2.59373   2.60582   2.60977
 Alpha virt. eigenvalues --    2.61374   2.62622   2.64666   2.65827   2.66183
 Alpha virt. eigenvalues --    2.69166   2.69584   2.72132   2.72409   2.72805
 Alpha virt. eigenvalues --    2.73656   2.75039   2.77094   2.77974   2.81121
 Alpha virt. eigenvalues --    2.81942   2.83160   2.83536   2.84286   2.86644
 Alpha virt. eigenvalues --    2.87795   2.89066   2.89355   2.90763   2.91361
 Alpha virt. eigenvalues --    2.92644   2.94371   2.95182   2.95481   2.96862
 Alpha virt. eigenvalues --    2.97136   2.99132   2.99847   3.02096   3.02979
 Alpha virt. eigenvalues --    3.04244   3.04914   3.06193   3.08038   3.09505
 Alpha virt. eigenvalues --    3.10216   3.10739   3.12224   3.14702   3.16319
 Alpha virt. eigenvalues --    3.18519   3.19350   3.20771   3.22936   3.24232
 Alpha virt. eigenvalues --    3.25590   3.26466   3.27327   3.29108   3.29845
 Alpha virt. eigenvalues --    3.30608   3.32451   3.33789   3.34769   3.35470
 Alpha virt. eigenvalues --    3.36086   3.38702   3.39318   3.41005   3.42359
 Alpha virt. eigenvalues --    3.43091   3.43569   3.45289   3.48299   3.48638
 Alpha virt. eigenvalues --    3.51185   3.52418   3.52527   3.55412   3.55954
 Alpha virt. eigenvalues --    3.57290   3.57402   3.60887   3.62394   3.65514
 Alpha virt. eigenvalues --    3.66145   3.67549   3.69806   3.70255   3.71306
 Alpha virt. eigenvalues --    3.72400   3.74601   3.76738   3.76899   3.80040
 Alpha virt. eigenvalues --    3.81663   3.83478   3.85862   3.85914   3.90172
 Alpha virt. eigenvalues --    3.92162   3.92319   3.94590   3.95723   3.97073
 Alpha virt. eigenvalues --    4.00234   4.01775   4.02631   4.03534   4.05995
 Alpha virt. eigenvalues --    4.06704   4.09740   4.11125   4.12975   4.15297
 Alpha virt. eigenvalues --    4.15872   4.16829   4.17944   4.19159   4.20291
 Alpha virt. eigenvalues --    4.23517   4.24905   4.27436   4.29805   4.30962
 Alpha virt. eigenvalues --    4.32373   4.33495   4.34601   4.35676   4.36412
 Alpha virt. eigenvalues --    4.37575   4.42368   4.45505   4.47415   4.48722
 Alpha virt. eigenvalues --    4.51772   4.55825   4.56933   4.58556   4.61393
 Alpha virt. eigenvalues --    4.63705   4.66128   4.68942   4.70448   4.70665
 Alpha virt. eigenvalues --    4.75494   4.77182   4.80728   4.83346   4.85439
 Alpha virt. eigenvalues --    4.87780   4.88955   4.90303   4.91722   4.96342
 Alpha virt. eigenvalues --    5.03164   5.04332   5.06362   5.06965   5.08600
 Alpha virt. eigenvalues --    5.12213   5.12716   5.15345   5.19089   5.20516
 Alpha virt. eigenvalues --    5.24760   5.27126   5.44711   5.47342   5.54640
 Alpha virt. eigenvalues --    5.57277   5.59534   5.61108   5.65985   5.69034
 Alpha virt. eigenvalues --    5.73938   5.79145   5.80283   5.83116   5.84554
 Alpha virt. eigenvalues --    5.85360   5.90475   5.93875   5.95785   5.99230
 Alpha virt. eigenvalues --    5.99943   6.02325   6.03572   6.06564   6.08775
 Alpha virt. eigenvalues --    6.09970   6.11826   6.16082   6.17052   6.18388
 Alpha virt. eigenvalues --    6.21247   6.24135   6.24525   6.25289   6.27183
 Alpha virt. eigenvalues --    6.28444   6.29205   6.31015   6.32414   6.34098
 Alpha virt. eigenvalues --    6.34809   6.37321   6.38243   6.41547   6.42990
 Alpha virt. eigenvalues --    6.44037   6.47075   6.47692   6.48912   6.50825
 Alpha virt. eigenvalues --    6.51688   6.52925   6.56936   6.58357   6.59311
 Alpha virt. eigenvalues --    6.60521   6.61616   6.62826   6.64172   6.65487
 Alpha virt. eigenvalues --    6.66497   6.68134   6.70191   6.71210   6.74000
 Alpha virt. eigenvalues --    6.74490   6.76625   6.78928   6.79556   6.81101
 Alpha virt. eigenvalues --    6.83102   6.83751   6.86375   6.89012   6.91277
 Alpha virt. eigenvalues --    6.92549   6.94790   6.95489   6.99443   7.01848
 Alpha virt. eigenvalues --    7.02478   7.06786   7.09763   7.11985   7.12964
 Alpha virt. eigenvalues --    7.14623   7.17358   7.18279   7.20995   7.21997
 Alpha virt. eigenvalues --    7.23266   7.29264   7.31014   7.34073   7.34328
 Alpha virt. eigenvalues --    7.34713   7.37616   7.39960   7.42072   7.44119
 Alpha virt. eigenvalues --    7.45470   7.48325   7.50513   7.52731   7.54697
 Alpha virt. eigenvalues --    7.55614   7.58776   7.59348   7.61301   7.65307
 Alpha virt. eigenvalues --    7.66354   7.68425   7.69658   7.72669   7.73973
 Alpha virt. eigenvalues --    7.75156   7.76652   7.79582   7.80695   7.81553
 Alpha virt. eigenvalues --    7.81878   7.85900   7.87469   7.88962   7.90583
 Alpha virt. eigenvalues --    7.91695   7.95362   7.97093   7.99639   8.00103
 Alpha virt. eigenvalues --    8.04591   8.05107   8.07069   8.09657   8.12959
 Alpha virt. eigenvalues --    8.14169   8.15875   8.18037   8.18634   8.19784
 Alpha virt. eigenvalues --    8.20279   8.21792   8.24096   8.25620   8.26886
 Alpha virt. eigenvalues --    8.29215   8.34883   8.35583   8.37701   8.38540
 Alpha virt. eigenvalues --    8.40091   8.42169   8.43820   8.45288   8.46987
 Alpha virt. eigenvalues --    8.51377   8.53040   8.53440   8.55091   8.56863
 Alpha virt. eigenvalues --    8.57930   8.58550   8.61363   8.64103   8.64800
 Alpha virt. eigenvalues --    8.66378   8.69624   8.70187   8.73564   8.75939
 Alpha virt. eigenvalues --    8.78041   8.78832   8.81378   8.82937   8.83741
 Alpha virt. eigenvalues --    8.85110   8.86815   8.87677   8.88899   8.91375
 Alpha virt. eigenvalues --    8.92961   8.93444   8.95493   8.96606   8.98248
 Alpha virt. eigenvalues --    8.99951   9.03395   9.05091   9.05990   9.09029
 Alpha virt. eigenvalues --    9.11813   9.13166   9.16241   9.18259   9.22291
 Alpha virt. eigenvalues --    9.23388   9.25429   9.26148   9.27100   9.28455
 Alpha virt. eigenvalues --    9.29190   9.31030   9.32830   9.35029   9.38246
 Alpha virt. eigenvalues --    9.38323   9.41628   9.42670   9.42894   9.44077
 Alpha virt. eigenvalues --    9.45155   9.47397   9.48004   9.48623   9.49350
 Alpha virt. eigenvalues --    9.51511   9.52594   9.53706   9.54912   9.57975
 Alpha virt. eigenvalues --    9.60646   9.61283   9.63592   9.66894   9.69283
 Alpha virt. eigenvalues --    9.69549   9.70944   9.72594   9.74367   9.80025
 Alpha virt. eigenvalues --    9.82107   9.83745   9.84813   9.87698   9.89100
 Alpha virt. eigenvalues --    9.95158   9.97965   9.98149  10.05059  10.08200
 Alpha virt. eigenvalues --   10.14847  10.21355  10.23839  10.24972  10.27847
 Alpha virt. eigenvalues --   10.29270  10.34765  10.35405  10.40964  10.45959
 Alpha virt. eigenvalues --   10.53811  10.55785  10.59481  10.61797  10.63488
 Alpha virt. eigenvalues --   10.65780  10.68370  10.71840  10.74041  10.78796
 Alpha virt. eigenvalues --   10.81562  10.82702  10.85328  10.87113  10.89799
 Alpha virt. eigenvalues --   10.93020  10.93959  10.95713  10.99196  11.00981
 Alpha virt. eigenvalues --   11.06287  11.08393  11.19556  11.23186  11.31740
 Alpha virt. eigenvalues --   11.40023  11.42286  11.49485  11.51501  11.53293
 Alpha virt. eigenvalues --   11.63125  11.74389  11.78551  11.95222  11.96489
 Alpha virt. eigenvalues --   11.99190  12.07324  12.08749  12.09461  12.10447
 Alpha virt. eigenvalues --   12.12820  12.14588  12.18334  12.20046  12.23707
 Alpha virt. eigenvalues --   12.25847  12.29353  12.32260  12.37033  12.40602
 Alpha virt. eigenvalues --   12.44273  12.51066  12.57345  12.60249  12.62641
 Alpha virt. eigenvalues --   12.65353  12.73310  12.76963  12.89012  13.02063
 Alpha virt. eigenvalues --   13.04046  13.08453  13.14029  13.15065  13.18367
 Alpha virt. eigenvalues --   13.23409  13.25375  13.31129  13.67883  13.72161
 Alpha virt. eigenvalues --   13.92159  13.98729  14.28656  14.39310  14.69723
 Alpha virt. eigenvalues --   14.81221  14.86647  14.91361  15.08703  25.53104
 Alpha virt. eigenvalues --   25.57004  27.09400  27.42532  34.86715  35.29921
 Alpha virt. eigenvalues --   43.60780  43.94937
          Condensed to atoms (all electrons):
               1          2          3          4          5          6
     1  C    5.081078   0.252739  -0.088181  -0.002875   0.008292  -0.026237
     2  C    0.252739   4.456682   0.357202  -0.001485  -0.044935   0.320578
     3  N   -0.088181   0.357202   6.678469   0.374108   0.415592  -0.066773
     4  H   -0.002875  -0.001485   0.374108   0.349097  -0.034234   0.002417
     5  H    0.008292  -0.044935   0.415592  -0.034234   0.430888  -0.000342
     6  O   -0.026237   0.320578  -0.066773   0.002417  -0.000342   8.509857
     7  N    0.235506  -0.069877   0.011800  -0.000415  -0.001346   0.006397
     8  C   -0.070356  -0.001718  -0.008439  -0.000897  -0.002127   0.000265
     9  O    0.002974   0.005133  -0.025195   0.000222   0.002844  -0.001667
    10  H   -0.017992   0.001101  -0.001621   0.000147   0.000094  -0.000333
    11  C   -0.005648   0.003581  -0.000354   0.000710   0.000106   0.000176
    12  H    0.000430  -0.000203   0.000063  -0.000047   0.000005   0.000003
    13  H   -0.000698   0.000093  -0.000287  -0.000032  -0.000004   0.000005
    14  H    0.000185   0.000377   0.000392   0.000135  -0.000006  -0.000013
    15  H    0.446826  -0.016511  -0.005302   0.001286  -0.000261   0.001245
    16  H    0.441415  -0.018115   0.002305   0.000041  -0.000084  -0.002336
               7          8          9         10         11         12
     1  C    0.235506  -0.070356   0.002974  -0.017992  -0.005648   0.000430
     2  C   -0.069877  -0.001718   0.005133   0.001101   0.003581  -0.000203
     3  N    0.011800  -0.008439  -0.025195  -0.001621  -0.000354   0.000063
     4  H   -0.000415  -0.000897   0.000222   0.000147   0.000710  -0.000047
     5  H   -0.001346  -0.002127   0.002844   0.000094   0.000106   0.000005
     6  O    0.006397   0.000265  -0.001667  -0.000333   0.000176   0.000003
     7  N    6.631500   0.297224  -0.047531   0.379245  -0.083613  -0.001853
     8  C    0.297224   4.744299   0.312286  -0.045428   0.204670  -0.028109
     9  O   -0.047531   0.312286   8.530243   0.004103  -0.031571  -0.017749
    10  H    0.379245  -0.045428   0.004103   0.477184   0.001867  -0.000058
    11  C   -0.083613   0.204670  -0.031571   0.001867   5.199415   0.440774
    12  H   -0.001853  -0.028109  -0.017749  -0.000058   0.440774   0.398111
    13  H    0.004305  -0.061798   0.006911   0.002100   0.465322  -0.018156
    14  H    0.002152  -0.014707  -0.008247  -0.000318   0.415362  -0.002013
    15  H   -0.011150  -0.012590  -0.000921   0.000799  -0.000849  -0.000024
    16  H   -0.031758   0.000923  -0.001263  -0.001084   0.000372   0.000014
              13         14         15         16
     1  C   -0.000698   0.000185   0.446826   0.441415
     2  C    0.000093   0.000377  -0.016511  -0.018115
     3  N   -0.000287   0.000392  -0.005302   0.002305
     4  H   -0.000032   0.000135   0.001286   0.000041
     5  H   -0.000004  -0.000006  -0.000261  -0.000084
     6  O    0.000005  -0.000013   0.001245  -0.002336
     7  N    0.004305   0.002152  -0.011150  -0.031758
     8  C   -0.061798  -0.014707  -0.012590   0.000923
     9  O    0.006911  -0.008247  -0.000921  -0.001263
    10  H    0.002100  -0.000318   0.000799  -0.001084
    11  C    0.465322   0.415362  -0.000849   0.000372
    12  H   -0.018156  -0.002013  -0.000024   0.000014
    13  H    0.446086  -0.013416  -0.000055  -0.000001
    14  H   -0.013416   0.406658   0.000077  -0.000044
    15  H   -0.000055   0.000077   0.360284  -0.013110
    16  H   -0.000001  -0.000044  -0.013110   0.358282
 Mulliken charges:
               1
     1  C   -0.257458
     2  C    0.755358
     3  N   -0.643780
     4  H    0.311823
     5  H    0.225518
     6  O   -0.743242
     7  N   -0.320585
     8  C    0.686502
     9  O   -0.730572
    10  H    0.200194
    11  C   -0.610318
    12  H    0.228809
    13  H    0.169625
    14  H    0.213427
    15  H    0.250256
    16  H    0.264442
 Sum of Mulliken charges =  -0.00000
 Mulliken charges with hydrogens summed into heavy atoms:
               1
     1  C    0.257240
     2  C    0.755358
     3  N   -0.106440
     6  O   -0.743242
     7  N   -0.120391
     8  C    0.686502
     9  O   -0.730572
    11  C    0.001543
 Electronic spatial extent (au):  <R**2>=           1093.5731
 Charge=             -0.0000 electrons
 Dipole moment (field-independent basis, Debye):
    X=             -3.8631    Y=             -1.3949    Z=             -0.7154  Tot=              4.1691
 Quadrupole moment (field-independent basis, Debye-Ang):
   XX=            -56.2280   YY=            -44.2299   ZZ=            -47.6079
   XY=              9.5278   XZ=              6.0163   YZ=             -3.5827
 Traceless Quadrupole moment (field-independent basis, Debye-Ang):
   XX=             -6.8727   YY=              5.1254   ZZ=              1.7474
   XY=              9.5278   XZ=              6.0163   YZ=             -3.5827
 Octapole moment (field-independent basis, Debye-Ang**2):
  XXX=            -54.5497  YYY=             -1.5196  ZZZ=              0.5710  XYY=              8.0273
  XXY=             10.5922  XXZ=              0.8404  XZZ=              1.4817  YZZ=              0.2329
  YYZ=             -7.4460  XYZ=             -4.2474
 Hexadecapole moment (field-independent basis, Debye-Ang**3):
 XXXX=          -1084.5817 YYYY=           -220.6360 ZZZZ=           -134.0482 XXXY=             48.1283
 XXXZ=             18.9819 YYYX=             22.7566 YYYZ=             -5.6502 ZZZX=             -0.2022
 ZZZY=             -2.2622 XXYY=           -208.8482 XXZZ=           -188.9376 YYZZ=            -62.8718
 XXYZ=            -18.5064 YYXZ=              0.0114 ZZXY=              3.6868
 N-N= 3.830793439011D+02 E-N=-1.740865737733D+03  KE= 4.145785224344D+02
 Leave Link  601 at Fri Jan  8 20:27:58 2021, MaxMem=  8053063680 cpu:              76.5 elap:              14.9
 (Enter /home/share/software/programs/Gaussian/g16/l9999.exe)
 Unable to Open any file for archive entry.
 1\1\GINC-CU39\SP\RMP2-FC\Jun-CC-pVQZ\C4H8N2O2\ROOT\08-Jan-2021\0\\#p M
 P2/jun-cc-pvqz\\SP\\0,1\C,0,0.,0.,0.\C,0,0.,0.,1.5263449\N,0,1.2288729
 5,0.,2.08333389\H,0,2.05189728,0.,1.499586\H,0,1.29974412,0.,3.0842655
 \O,0,-1.03756181,0.,2.16410265\N,0,0.57967471,-1.20142843,-0.5680101\C
 ,0,1.91545247,-1.361296,-0.70551314\O,0,2.70388858,-0.49130926,-0.3536
 4079\H,0,-0.03319475,-1.93647512,-0.86792596\C,0,2.37627299,-2.6591024
 3,-1.3109538\H,0,3.03665376,-2.43480201,-2.14486896\H,0,1.55430241,-3.
 28347578,-1.65339974\H,0,2.9512091,-3.20160838,-0.56320325\H,0,0.56597
 042,0.86302157,-0.35125184\H,0,-1.02784913,0.07464266,-0.33971295\\Ver
 sion=ES64L-G16RevC.01\State=1-A\HF=-414.9830304\MP2=-416.6296978\RMSD=
 8.410e-09\PG=C01 [X(C4H8N2O2)]\\@
 The archive entry for this job was punched.


 THE FIRST AND LAST THING REQUIRED OF GENIUS IS THE LOVE OF TRUTH.

                          -- GOETHE
 Job cpu time:       2 days  3 hours 21 minutes 20.3 seconds.
 Elapsed time:       0 days  0 hours 48 minutes 48.1 seconds.
 File lengths (MBytes):  RWF= 184860 Int=      0 D2E=      0 Chk=     44 Scr=      2
 Normal termination of Gaussian 16 at Fri Jan  8 20:28:12 2021.
