 Entering Gaussian System, Link 0=g09
 Initial command:
 /share/pub/jeff/software/g09/g09/l1.exe "/share/home/jiangzhongming/tmp/Gau-38915.inp" -scrdir="/share/home/jiangzhongming/tmp/"
 Entering Link 1 = /share/pub/jeff/software/g09/g09/l1.exe PID=     38916.
  
 Copyright (c) 1988,1990,1992,1993,1995,1998,2003,2009,2015,
            Gaussian, Inc.  All Rights Reserved.
  
 This is part of the Gaussian(R) 09 program.  It is based on
 the Gaussian(R) 03 system (copyright 2003, Gaussian, Inc.),
 the Gaussian(R) 98 system (copyright 1998, Gaussian, Inc.),
 the Gaussian(R) 94 system (copyright 1995, Gaussian, Inc.),
 the Gaussian 92(TM) system (copyright 1992, Gaussian, Inc.),
 the Gaussian 90(TM) system (copyright 1990, Gaussian, Inc.),
 the Gaussian 88(TM) system (copyright 1988, Gaussian, Inc.),
 the Gaussian 86(TM) system (copyright 1986, Carnegie Mellon
 University), and the Gaussian 82(TM) system (copyright 1983,
 Carnegie Mellon University). Gaussian is a federally registered
 trademark of Gaussian, Inc.
  
 This software contains proprietary and confidential information,
 including trade secrets, belonging to Gaussian, Inc.
  
 This software is provided under written license and may be
 used, copied, transmitted, or stored only in accord with that
 written license.
  
 The following legend is applicable only to US Government
 contracts under FAR:
  
                    RESTRICTED RIGHTS LEGEND
  
 Use, reproduction and disclosure by the US Government is
 subject to restrictions as set forth in subparagraphs (a)
 and (c) of the Commercial Computer Software - Restricted
 Rights clause in FAR 52.227-19.
  
 Gaussian, Inc.
 340 Quinnipiac St., Bldg. 40, Wallingford CT 06492
  
  
 ---------------------------------------------------------------
 Warning -- This program may not be used in any manner that
 competes with the business of Gaussian, Inc. or will provide
 assistance to any competitor of Gaussian, Inc.  The licensee
 of this program is prohibited from giving any competitor of
 Gaussian, Inc. access to this program.  By using this program,
 the user acknowledges that Gaussian, Inc. is engaged in the
 business of creating and licensing software in the field of
 computational chemistry and represents and warrants to the
 licensee that it is not a competitor of Gaussian, Inc. and that
 it will not use this program in any manner prohibited above.
 ---------------------------------------------------------------
  

 Cite this work as:
 Gaussian 09, Revision E.01,
 M. J. Frisch, G. W. Trucks, H. B. Schlegel, G. E. Scuseria, 
 M. A. Robb, J. R. Cheeseman, G. Scalmani, V. Barone, B. Mennucci, 
 G. A. Petersson, H. Nakatsuji, M. Caricato, X. Li, H. P. Hratchian, 
 A. F. Izmaylov, J. Bloino, G. Zheng, J. L. Sonnenberg, M. Hada, 
 M. Ehara, K. Toyota, R. Fukuda, J. Hasegawa, M. Ishida, T. Nakajima, 
 Y. Honda, O. Kitao, H. Nakai, T. Vreven, J. A. Montgomery, Jr., 
 J. E. Peralta, F. Ogliaro, M. Bearpark, J. J. Heyd, E. Brothers, 
 K. N. Kudin, V. N. Staroverov, T. Keith, R. Kobayashi, J. Normand, 
 K. Raghavachari, A. Rendell, J. C. Burant, S. S. Iyengar, J. Tomasi, 
 M. Cossi, N. Rega, J. M. Millam, M. Klene, J. E. Knox, J. B. Cross, 
 V. Bakken, C. Adamo, J. Jaramillo, R. Gomperts, R. E. Stratmann, 
 O. Yazyev, A. J. Austin, R. Cammi, C. Pomelli, J. W. Ochterski, 
 R. L. Martin, K. Morokuma, V. G. Zakrzewski, G. A. Voth, 
 P. Salvador, J. J. Dannenberg, S. Dapprich, A. D. Daniels, 
 O. Farkas, J. B. Foresman, J. V. Ortiz, J. Cioslowski, 
 and D. J. Fox, Gaussian, Inc., Wallingford CT, 2013.
 
 ******************************************
 Gaussian 09:  ES64L-G09RevE.01 30-Nov-2015
                15-Oct-2016 
 ******************************************
 %chk=gtt_Best_geom_CCSDT_VTZ.chk
 %nprocshared=16
 Will use up to   16 processors via shared memory.
 %mem=100GB
 ------------------
 #P CCSD(T) cc-pVTZ
 ------------------
 1/38=1/1;
 2/12=2,17=6,18=5,40=1/2;
 3/5=16,6=1,11=9,16=1,25=1,30=1/1,2,3;
 4//1;
 5/5=2,38=5/2;
 8/6=4,9=120000,10=1/1,4;
 9/5=7,14=2/13;
 6/7=2,8=2,9=2,10=2/1;
 99/5=1,9=1/99;
 Leave Link    1 at Sat Oct 15 14:42:08 2016, MaxMem= 13421772800 cpu:         2.0
 (Enter /share/pub/jeff/software/g09/g09/l101.exe)
 --------------------------
 start best geom PCCP paper
 --------------------------
 Symbolic Z-matrix:
 Charge =  0 Multiplicity = 1
 C
 O                    1    B1
 O                    1    B2       2    A1
 H                    2    B3       1    A2       3    D1       0
 C                    1    B4       3    A3       2    D2       0
 N                    5    B5       1    A4       3    D3       0
 H                    5    B6       1    A5       3    D4       0
 H                    5    B7       1    A6       3    D5       0
 H                    6    B8       5    A7       1    D6       0
 H                    6    B9       5    A8       1    D7       0
       Variables:
  B1                    1.34608                  
  B2                    1.20274                  
  A1                  123.21263                  
  B3                    0.96513                  
  A2                  106.9601                   
  D1                    1.12063                  
  B4                    1.50353                  
  A3                  125.17128                  
  D2                  178.03326                  
  B5                    1.44879                  
  A4                  110.05161                  
  D3                   18.04528                  
  B6                    1.09682                  
  A5                  105.6396                   
  D4                 -106.18775                  
  B7                    1.08963                  
  A6                  108.30581                  
  D5                  139.44601                  
  B8                    1.00859                  
  A7                  111.64684                  
  D6                 -155.36007                  
  B9                    1.01187                  
  A8                  110.28053                  
  D7                  -34.31555                  
 
 NAtoms=     10 NQM=       10 NQMF=       0 NMMI=      0 NMMIF=      0
                NMic=       0 NMicF=      0.
                    Isotopes and Nuclear Properties:
 (Nuclear quadrupole moments (NQMom) in fm**2, nuclear magnetic moments (NMagM)
  in nuclear magnetons)

  Atom         1           2           3           4           5           6           7           8           9          10
 IAtWgt=          12          16          16           1          12          14           1           1           1           1
 AtmWgt=  12.0000000  15.9949146  15.9949146   1.0078250  12.0000000  14.0030740   1.0078250   1.0078250   1.0078250   1.0078250
 NucSpn=           0           0           0           1           0           2           1           1           1           1
 AtZEff=   0.0000000   0.0000000   0.0000000   0.0000000   0.0000000   0.0000000   0.0000000   0.0000000   0.0000000   0.0000000
 NQMom=    0.0000000   0.0000000   0.0000000   0.0000000   0.0000000   2.0440000   0.0000000   0.0000000   0.0000000   0.0000000
 NMagM=    0.0000000   0.0000000   0.0000000   2.7928460   0.0000000   0.4037610   2.7928460   2.7928460   2.7928460   2.7928460
 AtZNuc=   6.0000000   8.0000000   8.0000000   1.0000000   6.0000000   7.0000000   1.0000000   1.0000000   1.0000000   1.0000000
 Leave Link  101 at Sat Oct 15 14:42:08 2016, MaxMem= 13421772800 cpu:         1.1
 (Enter /share/pub/jeff/software/g09/g09/l202.exe)
                          Input orientation:                          
 ---------------------------------------------------------------------
 Center     Atomic      Atomic             Coordinates (Angstroms)
 Number     Number       Type             X           Y           Z
 ---------------------------------------------------------------------
      1          6           0        0.000000    0.000000    0.000000
      2          8           0        0.000000    0.000000    1.346080
      3          8           0        1.006265    0.000000   -0.658798
      4          1           0        0.922978    0.018055    1.627614
      5          6           0       -1.397395    0.042180   -0.553273
      6          7           0       -1.390055   -0.339641   -1.950825
      7          1           0       -1.761669    1.058393   -0.359291
      8          1           0       -2.017816   -0.635948    0.031974
      9          1           0       -2.181188    0.043508   -2.445353
     10          1           0       -0.540559   -0.019158   -2.397512
 ---------------------------------------------------------------------
                    Distance matrix (angstroms):
                    1          2          3          4          5
     1  C    0.000000
     2  O    1.346080   0.000000
     3  O    1.202740   2.243235   0.000000
     4  H    1.871187   0.965130   2.288000   0.000000
     5  C    1.503530   2.358396   2.406344   3.184491   0.000000
     6  N    2.419365   3.594049   2.743544   4.275897   1.448790
     7  H    2.086328   2.670574   2.978483   3.498203   1.096820
     8  H    2.115900   2.490560   3.166490   3.409114   1.089630
     9  H    3.277076   4.374293   3.654248   5.121089   2.047999
    10  H    2.457770   3.782466   2.327263   4.283102   2.034489
                    6          7          8          9         10
     6  N    0.000000
     7  H    2.150715   0.000000
     8  H    2.100803   1.757695   0.000000
     9  H    1.008590   2.357465   2.574004   0.000000
    10  H    1.011870   2.608940   2.909487   1.642523   0.000000
 Stoichiometry    C2H5NO2
 Framework group  C1[X(C2H5NO2)]
 Deg. of freedom    24
 Full point group                 C1      NOp   1
 Largest Abelian subgroup         C1      NOp   1
 Largest concise Abelian subgroup C1      NOp   1
                         Standard orientation:                         
 ---------------------------------------------------------------------
 Center     Atomic      Atomic             Coordinates (Angstroms)
 Number     Number       Type             X           Y           Z
 ---------------------------------------------------------------------
      1          6           0        0.533710    0.102893    0.014867
      2          8           0        1.632185   -0.670799   -0.066880
      3          8           0        0.575034    1.304539    0.045254
      4          1           0        2.393950   -0.078239   -0.074783
      5          6           0       -0.719436   -0.723120    0.103930
      6          7           0       -1.876755    0.096522   -0.192365
      7          1           0       -0.714656   -1.160119    1.109923
      8          1           0       -0.636201   -1.548521   -0.602525
      9          1           0       -2.714348   -0.276671    0.227657
     10          1           0       -1.734852    1.039339    0.146516
 ---------------------------------------------------------------------
 Rotational constants (GHZ):     10.4739592      4.0016078      2.9777417
 Leave Link  202 at Sat Oct 15 14:42:08 2016, MaxMem= 13421772800 cpu:         0.4
 (Enter /share/pub/jeff/software/g09/g09/l301.exe)
 Standard basis: CC-pVTZ (5D, 7F)
 Ernie: Thresh=  0.10000D-02 Tol=  0.10000D-05 Strict=F.
 Ernie:  15 primitive shells out of 170 were deleted.
 There are   250 symmetry adapted cartesian basis functions of A   symmetry.
 There are   220 symmetry adapted basis functions of A   symmetry.
   220 basis functions,   345 primitive gaussians,   250 cartesian basis functions
    20 alpha electrons       20 beta electrons
       nuclear repulsion energy       180.5543239339 Hartrees.
 IExCor=    0 DFT=F Ex=HF Corr=None ExCW=0 ScaHFX=  1.000000
 ScaDFX=  1.000000  1.000000  1.000000  1.000000 ScalE2=  1.000000  1.000000
 IRadAn=      0 IRanWt=     -1 IRanGd=            0 ICorTp=0 IEmpDi=  4
 NAtoms=   10 NActive=   10 NUniq=   10 SFac= 1.00D+00 NAtFMM=   60 NAOKFM=F Big=F
 Integral buffers will be    131072 words long.
 Raffenetti 1 integral format.
 Two-electron integral symmetry is turned on.
 Leave Link  301 at Sat Oct 15 14:42:08 2016, MaxMem= 13421772800 cpu:         1.4
 (Enter /share/pub/jeff/software/g09/g09/l302.exe)
 NPDir=0 NMtPBC=     1 NCelOv=     1 NCel=       1 NClECP=     1 NCelD=      1
         NCelK=      1 NCelE2=     1 NClLst=     1 CellRange=     0.0.
 One-electron integrals computed using PRISM.
 NBasis=   220 RedAO= T EigKep=  5.04D-04  NBF=   220
 NBsUse=   220 1.00D-06 EigRej= -1.00D+00 NBFU=   220
 Leave Link  302 at Sat Oct 15 14:42:08 2016, MaxMem= 13421772800 cpu:         2.9
 (Enter /share/pub/jeff/software/g09/g09/l303.exe)
 DipDrv:  MaxL=1.
 Leave Link  303 at Sat Oct 15 14:42:08 2016, MaxMem= 13421772800 cpu:         0.5
 (Enter /share/pub/jeff/software/g09/g09/l401.exe)
 ExpMin= 1.03D-01 ExpMax= 1.53D+04 ExpMxC= 5.22D+02 IAcc=1 IRadAn=         1 AccDes= 0.00D+00
 Harris functional with IExCor=  205 and IRadAn=       1 diagonalized for initial guess.
 HarFok:  IExCor=  205 AccDes= 0.00D+00 IRadAn=         1 IDoV= 1 UseB2=F ITyADJ=14
 ICtDFT=  3500011 ScaDFX=  1.000000  1.000000  1.000000  1.000000
 FoFCou: FMM=F IPFlag=           0 FMFlag=      100000 FMFlg1=           0
         NFxFlg=           0 DoJE=T BraDBF=F KetDBF=T FulRan=T
         wScrn=  0.000000 ICntrl=     500 IOpCl=  0 I1Cent=   200000004 NGrid=           0
         NMat0=    1 NMatS0=      1 NMatT0=    0 NMatD0=    1 NMtDS0=    0 NMtDT0=    0
 Petite list used in FoFCou.
 Harris En= -283.224389686029    
 JPrj=0 DoOrth=F DoCkMO=F.
 Leave Link  401 at Sat Oct 15 14:42:09 2016, MaxMem= 13421772800 cpu:         3.8
 (Enter /share/pub/jeff/software/g09/g09/l502.exe)
 Closed shell SCF:
 Using DIIS extrapolation, IDIIS=  1040.
 Integral symmetry usage will be decided dynamically.
 Keep R1 ints in memory in canonical form, NReq=303618575.
 IVT=      211870 IEndB=      211870 NGot= 13421772800 MDV= 13126060726
 LenX= 13126060726 LenY= 13125997785
 Requested convergence on RMS density matrix=1.00D-08 within 128 cycles.
 Requested convergence on MAX density matrix=1.00D-06.
 Requested convergence on             energy=1.00D-06.
 No special actions if energy rises.
 FoFCou: FMM=F IPFlag=           0 FMFlag=           0 FMFlg1=           0
         NFxFlg=           0 DoJE=F BraDBF=F KetDBF=F FulRan=T
         wScrn=  0.000000 ICntrl=     600 IOpCl=  0 I1Cent=           0 NGrid=           0
         NMat0=    1 NMatS0=  24310 NMatT0=    0 NMatD0=    1 NMtDS0=    0 NMtDT0=    0
 Symmetry not used in FoFCou.

 Cycle   1  Pass 1  IDiag  1:
 E= -282.706413036510    
 DIIS: error= 2.77D-02 at cycle   1 NSaved=   1.
 NSaved= 1 IEnMin= 1 EnMin= -282.706413036510     IErMin= 1 ErrMin= 2.77D-02
 ErrMax= 2.77D-02  0.00D+00 EMaxC= 1.00D-01 BMatC= 5.76D-01 BMatP= 5.76D-01
 IDIUse=3 WtCom= 7.23D-01 WtEn= 2.77D-01
 Coeff-Com:  0.100D+01
 Coeff-En:   0.100D+01
 Coeff:      0.100D+01
 Gap=     0.507 Goal=   None    Shift=    0.000
 GapD=    0.507 DampG=2.000 DampE=0.500 DampFc=1.0000 IDamp=-1.
 RMSDP=1.96D-03 MaxDP=8.26D-02              OVMax= 1.15D-01

 Cycle   2  Pass 1  IDiag  1:
 E= -282.892387897295     Delta-E=       -0.185974860784 Rises=F Damp=F
 DIIS: error= 1.44D-02 at cycle   2 NSaved=   2.
 NSaved= 2 IEnMin= 2 EnMin= -282.892387897295     IErMin= 2 ErrMin= 1.44D-02
 ErrMax= 1.44D-02  0.00D+00 EMaxC= 1.00D-01 BMatC= 7.78D-02 BMatP= 5.76D-01
 IDIUse=3 WtCom= 8.56D-01 WtEn= 1.44D-01
 Coeff-Com:  0.201D+00 0.799D+00
 Coeff-En:   0.000D+00 0.100D+01
 Coeff:      0.172D+00 0.828D+00
 Gap=     0.570 Goal=   None    Shift=    0.000
 RMSDP=9.66D-04 MaxDP=4.03D-02 DE=-1.86D-01 OVMax= 5.31D-02

 Cycle   3  Pass 1  IDiag  1:
 E= -282.938642508403     Delta-E=       -0.046254611109 Rises=F Damp=F
 DIIS: error= 5.76D-03 at cycle   3 NSaved=   3.
 NSaved= 3 IEnMin= 3 EnMin= -282.938642508403     IErMin= 3 ErrMin= 5.76D-03
 ErrMax= 5.76D-03  0.00D+00 EMaxC= 1.00D-01 BMatC= 9.96D-03 BMatP= 7.78D-02
 IDIUse=3 WtCom= 9.42D-01 WtEn= 5.76D-02
 Coeff-Com: -0.239D-01 0.233D+00 0.791D+00
 Coeff-En:   0.000D+00 0.000D+00 0.100D+01
 Coeff:     -0.225D-01 0.220D+00 0.803D+00
 Gap=     0.538 Goal=   None    Shift=    0.000
 RMSDP=2.05D-04 MaxDP=8.02D-03 DE=-4.63D-02 OVMax= 2.53D-02

 Cycle   4  Pass 1  IDiag  1:
 E= -282.944950189012     Delta-E=       -0.006307680609 Rises=F Damp=F
 DIIS: error= 1.12D-03 at cycle   4 NSaved=   4.
 NSaved= 4 IEnMin= 4 EnMin= -282.944950189012     IErMin= 4 ErrMin= 1.12D-03
 ErrMax= 1.12D-03  0.00D+00 EMaxC= 1.00D-01 BMatC= 3.98D-04 BMatP= 9.96D-03
 IDIUse=3 WtCom= 9.89D-01 WtEn= 1.12D-02
 Coeff-Com: -0.114D-01 0.537D-01 0.262D+00 0.696D+00
 Coeff-En:   0.000D+00 0.000D+00 0.000D+00 0.100D+01
 Coeff:     -0.113D-01 0.531D-01 0.259D+00 0.699D+00
 Gap=     0.535 Goal=   None    Shift=    0.000
 RMSDP=6.06D-05 MaxDP=2.14D-03 DE=-6.31D-03 OVMax= 4.95D-03

 Cycle   5  Pass 1  IDiag  1:
 E= -282.945282221766     Delta-E=       -0.000332032754 Rises=F Damp=F
 DIIS: error= 5.77D-04 at cycle   5 NSaved=   5.
 NSaved= 5 IEnMin= 5 EnMin= -282.945282221766     IErMin= 5 ErrMin= 5.77D-04
 ErrMax= 5.77D-04  0.00D+00 EMaxC= 1.00D-01 BMatC= 2.63D-05 BMatP= 3.98D-04
 IDIUse=3 WtCom= 9.94D-01 WtEn= 5.77D-03
 Coeff-Com:  0.228D-02-0.241D-01-0.864D-01 0.256D-01 0.108D+01
 Coeff-En:   0.000D+00 0.000D+00 0.000D+00 0.000D+00 0.100D+01
 Coeff:      0.227D-02-0.240D-01-0.859D-01 0.255D-01 0.108D+01
 Gap=     0.536 Goal=   None    Shift=    0.000
 RMSDP=3.22D-05 MaxDP=8.91D-04 DE=-3.32D-04 OVMax= 3.66D-03

 Cycle   6  Pass 1  IDiag  1:
 E= -282.945332516577     Delta-E=       -0.000050294811 Rises=F Damp=F
 DIIS: error= 1.12D-04 at cycle   6 NSaved=   6.
 NSaved= 6 IEnMin= 6 EnMin= -282.945332516577     IErMin= 6 ErrMin= 1.12D-04
 ErrMax= 1.12D-04  0.00D+00 EMaxC= 1.00D-01 BMatC= 3.71D-06 BMatP= 2.63D-05
 IDIUse=3 WtCom= 9.99D-01 WtEn= 1.12D-03
 Coeff-Com:  0.154D-02-0.106D-01-0.428D-01-0.737D-01 0.206D+00 0.919D+00
 Coeff-En:   0.000D+00 0.000D+00 0.000D+00 0.000D+00 0.000D+00 0.100D+01
 Coeff:      0.154D-02-0.106D-01-0.427D-01-0.736D-01 0.206D+00 0.919D+00
 Gap=     0.536 Goal=   None    Shift=    0.000
 RMSDP=1.31D-05 MaxDP=5.11D-04 DE=-5.03D-05 OVMax= 1.03D-03

 Cycle   7  Pass 1  IDiag  1:
 E= -282.945339321693     Delta-E=       -0.000006805117 Rises=F Damp=F
 DIIS: error= 6.75D-05 at cycle   7 NSaved=   7.
 NSaved= 7 IEnMin= 7 EnMin= -282.945339321693     IErMin= 7 ErrMin= 6.75D-05
 ErrMax= 6.75D-05  0.00D+00 EMaxC= 1.00D-01 BMatC= 4.66D-07 BMatP= 3.71D-06
 IDIUse=1 WtCom= 1.00D+00 WtEn= 0.00D+00
 Coeff-Com: -0.251D-03 0.286D-02 0.124D-01-0.112D-01-0.126D+00-0.166D-01
 Coeff-Com:  0.114D+01
 Coeff:     -0.251D-03 0.286D-02 0.124D-01-0.112D-01-0.126D+00-0.166D-01
 Coeff:      0.114D+01
 Gap=     0.537 Goal=   None    Shift=    0.000
 RMSDP=5.30D-06 MaxDP=1.75D-04 DE=-6.81D-06 OVMax= 6.99D-04

 Cycle   8  Pass 1  IDiag  1:
 E= -282.945340560670     Delta-E=       -0.000001238977 Rises=F Damp=F
 DIIS: error= 1.71D-05 at cycle   8 NSaved=   8.
 NSaved= 8 IEnMin= 8 EnMin= -282.945340560670     IErMin= 8 ErrMin= 1.71D-05
 ErrMax= 1.71D-05  0.00D+00 EMaxC= 1.00D-01 BMatC= 6.43D-08 BMatP= 4.66D-07
 IDIUse=1 WtCom= 1.00D+00 WtEn= 0.00D+00
 Coeff-Com: -0.186D-03 0.122D-02 0.504D-02 0.612D-02-0.105D-01-0.116D+00
 Coeff-Com: -0.110D+00 0.122D+01
 Coeff:     -0.186D-03 0.122D-02 0.504D-02 0.612D-02-0.105D-01-0.116D+00
 Coeff:     -0.110D+00 0.122D+01
 Gap=     0.537 Goal=   None    Shift=    0.000
 RMSDP=2.12D-06 MaxDP=7.10D-05 DE=-1.24D-06 OVMax= 2.87D-04

 Cycle   9  Pass 1  IDiag  1:
 E= -282.945340743469     Delta-E=       -0.000000182800 Rises=F Damp=F
 DIIS: error= 6.04D-06 at cycle   9 NSaved=   9.
 NSaved= 9 IEnMin= 9 EnMin= -282.945340743469     IErMin= 9 ErrMin= 6.04D-06
 ErrMax= 6.04D-06  0.00D+00 EMaxC= 1.00D-01 BMatC= 8.30D-09 BMatP= 6.43D-08
 IDIUse=1 WtCom= 1.00D+00 WtEn= 0.00D+00
 Coeff-Com: -0.308D-05-0.138D-03-0.627D-03 0.166D-02 0.159D-01-0.176D-01
 Coeff-Com: -0.161D+00 0.201D+00 0.961D+00
 Coeff:     -0.308D-05-0.138D-03-0.627D-03 0.166D-02 0.159D-01-0.176D-01
 Coeff:     -0.161D+00 0.201D+00 0.961D+00
 Gap=     0.537 Goal=   None    Shift=    0.000
 RMSDP=5.89D-07 MaxDP=1.86D-05 DE=-1.83D-07 OVMax= 8.11D-05

 Cycle  10  Pass 1  IDiag  1:
 E= -282.945340760974     Delta-E=       -0.000000017504 Rises=F Damp=F
 DIIS: error= 1.87D-06 at cycle  10 NSaved=  10.
 NSaved=10 IEnMin=10 EnMin= -282.945340760974     IErMin=10 ErrMin= 1.87D-06
 ErrMax= 1.87D-06  0.00D+00 EMaxC= 1.00D-01 BMatC= 8.45D-10 BMatP= 8.30D-09
 IDIUse=1 WtCom= 1.00D+00 WtEn= 0.00D+00
 Coeff-Com:  0.270D-04-0.196D-03-0.772D-03-0.122D-02 0.288D-02 0.158D-01
 Coeff-Com:  0.107D-01-0.171D+00 0.334D-01 0.111D+01
 Coeff:      0.270D-04-0.196D-03-0.772D-03-0.122D-02 0.288D-02 0.158D-01
 Coeff:      0.107D-01-0.171D+00 0.334D-01 0.111D+01
 Gap=     0.537 Goal=   None    Shift=    0.000
 RMSDP=2.01D-07 MaxDP=7.34D-06 DE=-1.75D-08 OVMax= 2.53D-05

 Cycle  11  Pass 1  IDiag  1:
 E= -282.945340762922     Delta-E=       -0.000000001948 Rises=F Damp=F
 DIIS: error= 3.93D-07 at cycle  11 NSaved=  11.
 NSaved=11 IEnMin=11 EnMin= -282.945340762922     IErMin=11 ErrMin= 3.93D-07
 ErrMax= 3.93D-07  0.00D+00 EMaxC= 1.00D-01 BMatC= 5.32D-11 BMatP= 8.45D-10
 IDIUse=1 WtCom= 1.00D+00 WtEn= 0.00D+00
 Coeff-Com:  0.158D-06 0.834D-05 0.678D-04-0.119D-03-0.881D-03 0.166D-03
 Coeff-Com:  0.986D-02-0.293D-02-0.737D-01-0.662D-01 0.113D+01
 Coeff:      0.158D-06 0.834D-05 0.678D-04-0.119D-03-0.881D-03 0.166D-03
 Coeff:      0.986D-02-0.293D-02-0.737D-01-0.662D-01 0.113D+01
 Gap=     0.537 Goal=   None    Shift=    0.000
 RMSDP=4.90D-08 MaxDP=1.41D-06 DE=-1.95D-09 OVMax= 4.00D-06

 Cycle  12  Pass 1  IDiag  1:
 E= -282.945340763036     Delta-E=       -0.000000000114 Rises=F Damp=F
 DIIS: error= 1.19D-07 at cycle  12 NSaved=  12.
 NSaved=12 IEnMin=12 EnMin= -282.945340763036     IErMin=12 ErrMin= 1.19D-07
 ErrMax= 1.19D-07  0.00D+00 EMaxC= 1.00D-01 BMatC= 2.99D-12 BMatP= 5.32D-11
 IDIUse=1 WtCom= 1.00D+00 WtEn= 0.00D+00
 Coeff-Com: -0.170D-05 0.122D-04 0.500D-04 0.743D-04-0.146D-03-0.108D-02
 Coeff-Com: -0.140D-02 0.134D-01-0.210D-02-0.749D-01-0.217D-01 0.109D+01
 Coeff:     -0.170D-05 0.122D-04 0.500D-04 0.743D-04-0.146D-03-0.108D-02
 Coeff:     -0.140D-02 0.134D-01-0.210D-02-0.749D-01-0.217D-01 0.109D+01
 Gap=     0.537 Goal=   None    Shift=    0.000
 RMSDP=1.28D-08 MaxDP=2.69D-07 DE=-1.14D-10 OVMax= 9.26D-07

 Cycle  13  Pass 1  IDiag  1:
 E= -282.945340763036     Delta-E=        0.000000000000 Rises=F Damp=F
 DIIS: error= 4.34D-08 at cycle  13 NSaved=  13.
 NSaved=13 IEnMin=12 EnMin= -282.945340763036     IErMin=13 ErrMin= 4.34D-08
 ErrMax= 4.34D-08  0.00D+00 EMaxC= 1.00D-01 BMatC= 3.19D-13 BMatP= 2.99D-12
 IDIUse=1 WtCom= 1.00D+00 WtEn= 0.00D+00
 Coeff-Com:  0.106D-06-0.164D-05-0.990D-05 0.423D-05 0.103D-03 0.616D-04
 Coeff-Com: -0.101D-02-0.421D-04 0.642D-02 0.856D-02-0.102D+00-0.111D-01
 Coeff-Com:  0.110D+01
 Coeff:      0.106D-06-0.164D-05-0.990D-05 0.423D-05 0.103D-03 0.616D-04
 Coeff:     -0.101D-02-0.421D-04 0.642D-02 0.856D-02-0.102D+00-0.111D-01
 Coeff:      0.110D+01
 Gap=     0.537 Goal=   None    Shift=    0.000
 RMSDP=4.06D-09 MaxDP=8.23D-08 DE= 3.41D-13 OVMax= 4.31D-07

 SCF Done:  E(RHF) =  -282.945340763     A.U. after   13 cycles
            NFock= 13  Conv=0.41D-08     -V/T= 2.0013
 KE= 2.825900743669D+02 PE=-1.027548486276D+03 EE= 2.814587472120D+02
 Leave Link  502 at Sat Oct 15 14:42:17 2016, MaxMem= 13421772800 cpu:        92.4
 (Enter /share/pub/jeff/software/g09/g09/l801.exe)
 Windowed orbitals will be sorted by symmetry type.
 ExpMin= 1.03D-01 ExpMax= 1.53D+04 ExpMxC= 5.22D+02 IAcc=3 IRadAn=         5 AccDes= 0.00D+00
 HarFok:  IExCor=  205 AccDes= 0.00D+00 IRadAn=         5 IDoV=-2 UseB2=F ITyADJ=14
 ICtDFT= 12500011 ScaDFX=  1.000000  1.000000  1.000000  1.000000
 Largest valence mixing into a core orbital is  2.06D-04
 Largest core mixing into a valence orbital is  3.06D-05
 Range of M.O.s used for correlation:     6   220
 NBasis=   220 NAE=    20 NBE=    20 NFC=     5 NFV=     0
 NROrb=    215 NOA=    15 NOB=    15 NVA=   200 NVB=   200

 **** Warning!!: The largest alpha MO coefficient is  0.13884715D+02

 Leave Link  801 at Sat Oct 15 14:42:18 2016, MaxMem= 13421772800 cpu:         1.2
 (Enter /share/pub/jeff/software/g09/g09/l804.exe)
 Closed-shell transformation, MDV= 13421772800 ITran=4 ISComp=1.
 Semi-Direct transformation.
 ModeAB=           4 MOrb=            15 LenV=   13420456289
 LASXX=     71110065 LTotXX=    71110065 LenRXX=   143196465
 LTotAB=    72086400 MaxLAS=    99923400 LenRXY=           0
 NonZer=   214306530 LenScr=   321912832 LnRSAI=    99923400
 LnScr1=   149946368 LExtra=           0 Total=    714979065
 MaxDsk=          -1 SrtSym=           T ITran=            4
 DoSDTr:  NPSUse= 16
 JobTyp=0 Pass  1:  I=   1 to  15.
 (rs|ai) integrals will be sorted in core.
 Complete sort for first half transformation.
 First half transformation complete.
 Begin second half transformation for I=  10.
 Complete sort for second half transformation.
 Second half transformation complete.
 SymMOI:  orbitals are not symmetric.
 Spin components of T(2) and E(2):
     alpha-alpha T2 =       0.3535175269D-01 E2=     -0.1269466290D+00
     alpha-beta  T2 =       0.1965048555D+00 E2=     -0.7551355938D+00
     beta-beta   T2 =       0.3535175269D-01 E2=     -0.1269466290D+00
 ANorm=    0.1125703496D+01
 E2 =    -0.1009028852D+01 EUMP2 =    -0.28395436961476D+03
 Leave Link  804 at Sat Oct 15 14:42:27 2016, MaxMem= 13421772800 cpu:       144.3
 (Enter /share/pub/jeff/software/g09/g09/l913.exe)
 CIDS:  MDV= 13421772800.
 Frozen-core window:  NFC=   5 NFV=   0.
 IFCWin=0 IBDFC=1 NFBD=     0     0 NFCmp=     0     0 NFFFC=     0     0
 Using DD3R+UMP44R for 1st iteration, S=T.
 Using DD4RQ for 2nd and later iterations.
 Keep R2 and R3 ints in memory in canonical form, NReq=598908608.
 FoFCou: FMM=F IPFlag=           0 FMFlag=           0 FMFlg1=           0
         NFxFlg=           0 DoJE=F BraDBF=F KetDBF=F FulRan=T
         wScrn=  0.000000 ICntrl=     600 IOpCl=  0 I1Cent=           0 NGrid=           0
         NMat0=    1 NMatS0=  24310 NMatT0=    0 NMatD0=    1 NMtDS0=    0 NMtDT0=    0
 Symmetry not used in FoFCou.
 CCSD(T)
 =======
 Iterations=  50 Convergence= 0.100D-06
 Iteration Nr.   1
 **********************
 DD1Dir will call FoFMem   1 times, MxPair=       240
 NAB=   120 NAA=     0 NBB=     0.
 MP4(R+Q)=  0.21597819D-01
 Maximum subspace dimension=  5
 Norm of the A-vectors is  1.4082478D+00 conv= 1.00D-05.
 RLE energy=       -0.9988926104
 E3=       -0.11866023D-01        EUMP3=      -0.28396623564D+03
 E4(DQ)=    0.13095256D-02        UMP4(DQ)=   -0.28396492611D+03
 E4(SDQ)=  -0.96387147D-02        UMP4(SDQ)=  -0.28397587435D+03
 VARIATIONAL ENERGIES WITH THE FIRST-ORDER WAVEFUNCTION:
 DE(Corr)= -0.99879001     E(Corr)=     -283.94413077    
 NORM(A)=   0.11259080D+01
 Iteration Nr.   2
 **********************
 DD1Dir will call FoFMem   1 times, MxPair=       240
 NAB=   120 NAA=     0 NBB=     0.
 Norm of the A-vectors is  5.1228033D-01 conv= 1.00D-05.
 RLE energy=       -1.0259271507
 DE(Corr)=  -1.0254467     E(CORR)=     -283.97078746     Delta=-2.67D-02
 NORM(A)=   0.11350952D+01
 Iteration Nr.   3
 **********************
 DD1Dir will call FoFMem   1 times, MxPair=       240
 NAB=   120 NAA=     0 NBB=     0.
 Norm of the A-vectors is  1.3983508D-01 conv= 1.00D-05.
 RLE energy=       -1.0274088892
 DE(Corr)=  -1.0251406     E(CORR)=     -283.97048133     Delta= 3.06D-04
 NORM(A)=   0.11375363D+01
 Iteration Nr.   4
 **********************
 DD1Dir will call FoFMem   1 times, MxPair=       240
 NAB=   120 NAA=     0 NBB=     0.
 Norm of the A-vectors is  5.5466297D-02 conv= 1.00D-05.
 RLE energy=       -1.0275869089
 DE(Corr)=  -1.0274062     E(CORR)=     -283.97274698     Delta=-2.27D-03
 NORM(A)=   0.11382776D+01
 Iteration Nr.   5
 **********************
 DD1Dir will call FoFMem   1 times, MxPair=       240
 NAB=   120 NAA=     0 NBB=     0.
 Norm of the A-vectors is  1.2230950D-02 conv= 1.00D-05.
 RLE energy=       -1.0276943497
 DE(Corr)=  -1.0276488     E(CORR)=     -283.97298959     Delta=-2.43D-04
 NORM(A)=   0.11385103D+01
 Iteration Nr.   6
 **********************
 DD1Dir will call FoFMem   1 times, MxPair=       240
 NAB=   120 NAA=     0 NBB=     0.
 Norm of the A-vectors is  5.7255031D-03 conv= 1.00D-05.
 RLE energy=       -1.0276732317
 DE(Corr)=  -1.0276707     E(CORR)=     -283.97301143     Delta=-2.18D-05
 NORM(A)=   0.11385353D+01
 Iteration Nr.   7
 **********************
 DD1Dir will call FoFMem   1 times, MxPair=       240
 NAB=   120 NAA=     0 NBB=     0.
 Norm of the A-vectors is  2.1774023D-03 conv= 1.00D-05.
 RLE energy=       -1.0276600200
 DE(Corr)=  -1.0276718     E(CORR)=     -283.97301255     Delta=-1.12D-06
 NORM(A)=   0.11385377D+01
 Iteration Nr.   8
 **********************
 DD1Dir will call FoFMem   1 times, MxPair=       240
 NAB=   120 NAA=     0 NBB=     0.
 Norm of the A-vectors is  7.5664015D-04 conv= 1.00D-05.
 RLE energy=       -1.0276690718
 DE(Corr)=  -1.0276699     E(CORR)=     -283.97301071     Delta= 1.84D-06
 NORM(A)=   0.11385417D+01
 Iteration Nr.   9
 **********************
 DD1Dir will call FoFMem   1 times, MxPair=       240
 NAB=   120 NAA=     0 NBB=     0.
 Norm of the A-vectors is  2.9303032D-04 conv= 1.00D-05.
 RLE energy=       -1.0276691972
 DE(Corr)=  -1.0276695     E(CORR)=     -283.97301026     Delta= 4.50D-07
 NORM(A)=   0.11385420D+01
 Iteration Nr.  10
 **********************
 DD1Dir will call FoFMem   1 times, MxPair=       240
 NAB=   120 NAA=     0 NBB=     0.
 Norm of the A-vectors is  1.1137128D-04 conv= 1.00D-05.
 RLE energy=       -1.0276700545
 DE(Corr)=  -1.0276700     E(CORR)=     -283.97301077     Delta=-5.13D-07
 NORM(A)=   0.11385426D+01
 Iteration Nr.  11
 **********************
 DD1Dir will call FoFMem   1 times, MxPair=       240
 NAB=   120 NAA=     0 NBB=     0.
 Norm of the A-vectors is  5.7053344D-05 conv= 1.00D-05.
 RLE energy=       -1.0276704238
 DE(Corr)=  -1.0276703     E(CORR)=     -283.97301103     Delta=-2.58D-07
 NORM(A)=   0.11385429D+01
 Iteration Nr.  12
 **********************
 DD1Dir will call FoFMem   1 times, MxPair=       240
 NAB=   120 NAA=     0 NBB=     0.
 Norm of the A-vectors is  2.6413722D-05 conv= 1.00D-05.
 RLE energy=       -1.0276704764
 DE(Corr)=  -1.0276704     E(CORR)=     -283.97301118     Delta=-1.50D-07
 NORM(A)=   0.11385431D+01
 Iteration Nr.  13
 **********************
 DD1Dir will call FoFMem   1 times, MxPair=       240
 NAB=   120 NAA=     0 NBB=     0.
 Norm of the A-vectors is  1.1982088D-05 conv= 1.00D-05.
 RLE energy=       -1.0276705010
 DE(Corr)=  -1.0276705     E(CORR)=     -283.97301124     Delta=-6.18D-08
 NORM(A)=   0.11385431D+01
 Iteration Nr.  14
 **********************
 DD1Dir will call FoFMem   1 times, MxPair=       240
 NAB=   120 NAA=     0 NBB=     0.
 Norm of the A-vectors is  6.1316473D-06 conv= 1.00D-05.
 RLE energy=       -1.0276705083
 DE(Corr)=  -1.0276705     E(CORR)=     -283.97301127     Delta=-2.31D-08
 NORM(A)=   0.11385432D+01
 CI/CC converged in   14 iterations to DelEn=-2.31D-08 Conv= 1.00D-07 ErrA1= 6.13D-06 Conv= 1.00D-05
 Largest amplitude= 4.45D-02
 T4(AAA)= -0.12726800D-02
 T4(AAB)= -0.20887452D-01
 T5(AAA)=  0.78669861D-04
 T5(AAB)=  0.91408202D-03
 Time for triples=     3593.76 seconds.
 T4(CCSD)= -0.44320263D-01
 T5(CCSD)=  0.19855038D-02
 CCSD(T)= -0.28401534603D+03
 Discarding MO integrals.
 Leave Link  913 at Sat Oct 15 14:52:56 2016, MaxMem= 13421772800 cpu:      6145.2
 (Enter /share/pub/jeff/software/g09/g09/l601.exe)
 Copying SCF densities to generalized density rwf, IOpCl= 0 IROHF=0.

 **********************************************************************

            Population analysis using the SCF density.

 **********************************************************************

 Orbital symmetries:
       Occupied  (A) (A) (A) (A) (A) (A) (A) (A) (A) (A) (A) (A)
                 (A) (A) (A) (A) (A) (A) (A) (A)
       Virtual   (A) (A) (A) (A) (A) (A) (A) (A) (A) (A) (A) (A)
                 (A) (A) (A) (A) (A) (A) (A) (A) (A) (A) (A) (A)
                 (A) (A) (A) (A) (A) (A) (A) (A) (A) (A) (A) (A)
                 (A) (A) (A) (A) (A) (A) (A) (A) (A) (A) (A) (A)
                 (A) (A) (A) (A) (A) (A) (A) (A) (A) (A) (A) (A)
                 (A) (A) (A) (A) (A) (A) (A) (A) (A) (A) (A) (A)
                 (A) (A) (A) (A) (A) (A) (A) (A) (A) (A) (A) (A)
                 (A) (A) (A) (A) (A) (A) (A) (A) (A) (A) (A) (A)
                 (A) (A) (A) (A) (A) (A) (A) (A) (A) (A) (A) (A)
                 (A) (A) (A) (A) (A) (A) (A) (A) (A) (A) (A) (A)
                 (A) (A) (A) (A) (A) (A) (A) (A) (A) (A) (A) (A)
                 (A) (A) (A) (A) (A) (A) (A) (A) (A) (A) (A) (A)
                 (A) (A) (A) (A) (A) (A) (A) (A) (A) (A) (A) (A)
                 (A) (A) (A) (A) (A) (A) (A) (A) (A) (A) (A) (A)
                 (A) (A) (A) (A) (A) (A) (A) (A) (A) (A) (A) (A)
                 (A) (A) (A) (A) (A) (A) (A) (A) (A) (A) (A) (A)
                 (A) (A) (A) (A) (A) (A) (A) (A)
 The electronic state is 1-A.
 Alpha  occ. eigenvalues --  -20.61608 -20.55220 -15.54313 -11.38781 -11.27497
 Alpha  occ. eigenvalues --   -1.47284  -1.36924  -1.19150  -0.98045  -0.81315
 Alpha  occ. eigenvalues --   -0.72052  -0.70907  -0.66967  -0.63077  -0.60106
 Alpha  occ. eigenvalues --   -0.57516  -0.56252  -0.48932  -0.45974  -0.40126
 Alpha virt. eigenvalues --    0.13528   0.15122   0.17356   0.18674   0.21861
 Alpha virt. eigenvalues --    0.22907   0.31812   0.33074   0.36523   0.41118
 Alpha virt. eigenvalues --    0.45275   0.48077   0.49410   0.50468   0.55959
 Alpha virt. eigenvalues --    0.57262   0.58451   0.59114   0.62046   0.63517
 Alpha virt. eigenvalues --    0.66106   0.67867   0.69676   0.71759   0.72598
 Alpha virt. eigenvalues --    0.73016   0.76380   0.80012   0.80169   0.81240
 Alpha virt. eigenvalues --    0.86783   0.91526   0.92437   0.95003   0.97944
 Alpha virt. eigenvalues --    1.00451   1.04548   1.09291   1.11648   1.14470
 Alpha virt. eigenvalues --    1.20366   1.23144   1.25423   1.27998   1.31981
 Alpha virt. eigenvalues --    1.34234   1.35803   1.38375   1.42123   1.44169
 Alpha virt. eigenvalues --    1.48026   1.49872   1.52988   1.55049   1.58951
 Alpha virt. eigenvalues --    1.61282   1.68635   1.72476   1.75029   1.81622
 Alpha virt. eigenvalues --    1.83693   1.86730   1.92039   1.98982   2.00896
 Alpha virt. eigenvalues --    2.03198   2.04846   2.06916   2.20989   2.26046
 Alpha virt. eigenvalues --    2.28757   2.32659   2.39119   2.44921   2.47840
 Alpha virt. eigenvalues --    2.58206   2.61319   2.69062   2.77431   2.78960
 Alpha virt. eigenvalues --    2.83836   2.87999   2.93263   2.95389   2.99822
 Alpha virt. eigenvalues --    3.04390   3.10895   3.17188   3.18541   3.20921
 Alpha virt. eigenvalues --    3.23952   3.26010   3.27254   3.32057   3.33769
 Alpha virt. eigenvalues --    3.40193   3.42008   3.45100   3.46500   3.50684
 Alpha virt. eigenvalues --    3.53386   3.55915   3.60323   3.61447   3.61846
 Alpha virt. eigenvalues --    3.66554   3.68766   3.71769   3.74650   3.75204
 Alpha virt. eigenvalues --    3.79332   3.80155   3.80463   3.86368   3.89267
 Alpha virt. eigenvalues --    3.91804   3.94029   3.96274   4.00987   4.02081
 Alpha virt. eigenvalues --    4.07597   4.13294   4.14497   4.14892   4.18962
 Alpha virt. eigenvalues --    4.20994   4.23253   4.26544   4.28305   4.33614
 Alpha virt. eigenvalues --    4.36795   4.41545   4.43561   4.46346   4.52740
 Alpha virt. eigenvalues --    4.54589   4.55716   4.58709   4.62472   4.66346
 Alpha virt. eigenvalues --    4.67851   4.72387   4.74308   4.80215   4.87160
 Alpha virt. eigenvalues --    4.90498   5.02067   5.09832   5.15918   5.23120
 Alpha virt. eigenvalues --    5.25868   5.33195   5.35519   5.37552   5.49182
 Alpha virt. eigenvalues --    5.52040   5.56563   5.60594   5.63856   5.66535
 Alpha virt. eigenvalues --    5.69680   5.71299   5.73662   5.84490   5.86300
 Alpha virt. eigenvalues --    5.93891   5.97305   6.02012   6.10676   6.15215
 Alpha virt. eigenvalues --    6.17308   6.25231   6.32356   6.35875   6.44958
 Alpha virt. eigenvalues --    6.54461   6.58070   6.66785   6.70650   6.72878
 Alpha virt. eigenvalues --    6.85191   6.95089   6.96934   6.99932   7.05985
 Alpha virt. eigenvalues --    7.17175   7.24876   7.25197   7.29587   7.37763
 Alpha virt. eigenvalues --    7.41048   7.55402   7.68730   7.79803   7.94822
 Alpha virt. eigenvalues --    9.66234  12.84566  12.91737  13.76346  13.88092
          Condensed to atoms (all electrons):
               1          2          3          4          5          6
     1  C    4.183839   0.441041   0.736829  -0.034850   0.351985  -0.041665
     2  O    0.441041   7.713561  -0.084367   0.331195  -0.073813   0.001987
     3  O    0.736829  -0.084367   7.811534   0.006113  -0.076930  -0.008046
     4  H   -0.034850   0.331195   0.006113   0.436717   0.011959  -0.000425
     5  C    0.351985  -0.073813  -0.076930   0.011959   4.739517   0.340796
     6  N   -0.041665   0.001987  -0.008046  -0.000425   0.340796   6.389359
     7  H   -0.022252   0.001346  -0.000934  -0.000701   0.425521  -0.059101
     8  H   -0.020856   0.003058   0.001570  -0.000522   0.403542  -0.034722
     9  H    0.005884  -0.000159  -0.000258   0.000044  -0.029983   0.390434
    10  H   -0.015347   0.000728   0.016616  -0.000181  -0.033905   0.392864
               7          8          9         10
     1  C   -0.022252  -0.020856   0.005884  -0.015347
     2  O    0.001346   0.003058  -0.000159   0.000728
     3  O   -0.000934   0.001570  -0.000258   0.016616
     4  H   -0.000701  -0.000522   0.000044  -0.000181
     5  C    0.425521   0.403542  -0.029983  -0.033905
     6  N   -0.059101  -0.034722   0.390434   0.392864
     7  H    0.631938  -0.054753  -0.007770  -0.000193
     8  H   -0.054753   0.592389  -0.001083   0.006713
     9  H   -0.007770  -0.001083   0.545137  -0.044483
    10  H   -0.000193   0.006713  -0.044483   0.510166
 Mulliken charges:
               1
     1  C    0.415393
     2  O   -0.334575
     3  O   -0.402127
     4  H    0.250651
     5  C   -0.058688
     6  N   -0.371482
     7  H    0.086899
     8  H    0.104665
     9  H    0.142238
    10  H    0.167024
 Sum of Mulliken charges =  -0.00000
 Mulliken charges with hydrogens summed into heavy atoms:
               1
     1  C    0.415393
     2  O   -0.083924
     3  O   -0.402127
     5  C    0.132877
     6  N   -0.062220
 Electronic spatial extent (au):  <R**2>=            413.9189
 Charge=             -0.0000 electrons
 Dipole moment (field-independent basis, Debye):
    X=              0.0949    Y=             -1.7347    Z=              1.3250  Tot=              2.1849
 Quadrupole moment (field-independent basis, Debye-Ang):
   XX=            -23.3467   YY=            -33.0311   ZZ=            -30.1723
   XY=              1.1786   XZ=             -3.3030   YZ=              0.1024
 Traceless Quadrupole moment (field-independent basis, Debye-Ang):
   XX=              5.5033   YY=             -4.1810   ZZ=             -1.3223
   XY=              1.1786   XZ=             -3.3030   YZ=              0.1024
 Octapole moment (field-independent basis, Debye-Ang**2):
  XXX=             14.3863  YYY=             -2.5514  ZZZ=              1.6333  XYY=             -6.1591
  XXY=              2.6846  XXZ=              6.7405  XZZ=              4.1660  YZZ=             -0.3487
  YYZ=             -0.0824  XYZ=             -0.7317
 Hexadecapole moment (field-independent basis, Debye-Ang**3):
 XXXX=           -239.2247 YYYY=           -140.3599 ZZZZ=            -35.8067 XXXY=              8.3348
 XXXZ=            -19.7321 YYYX=             -5.2933 YYYZ=              1.6719 ZZZX=             -3.8511
 ZZZY=              0.1094 XXYY=            -77.4315 XXZZ=            -65.7774 YYZZ=            -27.6947
 XXYZ=              0.3384 YYXZ=             -1.0015 ZZXY=              0.8505
 N-N= 1.805543239339D+02 E-N=-1.027548484028D+03  KE= 2.825900743669D+02
 Leave Link  601 at Sat Oct 15 14:52:56 2016, MaxMem= 13421772800 cpu:         3.8
 (Enter /share/pub/jeff/software/g09/g09/l9999.exe)
 1\1\GINC-R01N04\SP\RCCSD(T)-FC\CC-pVTZ\C2H5N1O2\JIANGZHONGMING\15-Oct-
 2016\0\\#P CCSD(T) cc-pVTZ\\start best geom PCCP paper\\0,1\C\O,1,1.34
 608\O,1,1.20274,2,123.21263\H,2,0.96513,1,106.9601,3,1.12063,0\C,1,1.5
 0353,3,125.17128,2,178.03326,0\N,5,1.44879,1,110.05161,3,18.04528,0\H,
 5,1.09682,1,105.6396,3,-106.18775,0\H,5,1.08963,1,108.30581,3,139.4460
 1,0\H,6,1.00859,5,111.64684,1,-155.36007,0\H,6,1.01187,5,110.28053,1,-
 34.31555,0\\Version=ES64L-G09RevE.01\State=1-A\HF=-282.9453408\MP2=-28
 3.9543696\MP3=-283.9662356\MP4D=-283.9865239\MP4DQ=-283.9649261\MP4SDQ
 =-283.9758744\CCSD=-283.9730113\CCSD(T)=-284.015346\RMSD=4.060e-09\PG=
 C01 [X(C2H5N1O2)]\\@


 THE REAL VOYAGE OF DISCOVERY CONSISTS NOT IN SEEKING NEW LANDSCAPES 
 BUT IN HAVING NEW EYES.
                                                    -- MARCEL PROUST
 Job cpu time:       0 days  1 hours 46 minutes 47.9 seconds.
 File lengths (MBytes):  RWF=  12844 Int=      0 D2E=      0 Chk=      8 Scr=      8
 Normal termination of Gaussian 09 at Sat Oct 15 14:52:57 2016.
