 Entering Gaussian System, Link 0=g09
 Initial command:
 /share/pub/jeff/software/g09/g09/l1.exe "/share/home/jiangzhongming/tmp/Gau-40930.inp" -scrdir="/share/home/jiangzhongming/tmp/"
 Entering Link 1 = /share/pub/jeff/software/g09/g09/l1.exe PID=     40931.
  
 Copyright (c) 1988,1990,1992,1993,1995,1998,2003,2009,2015,
            Gaussian, Inc.  All Rights Reserved.
  
 This is part of the Gaussian(R) 09 program.  It is based on
 the Gaussian(R) 03 system (copyright 2003, Gaussian, Inc.),
 the Gaussian(R) 98 system (copyright 1998, Gaussian, Inc.),
 the Gaussian(R) 94 system (copyright 1995, Gaussian, Inc.),
 the Gaussian 92(TM) system (copyright 1992, Gaussian, Inc.),
 the Gaussian 90(TM) system (copyright 1990, Gaussian, Inc.),
 the Gaussian 88(TM) system (copyright 1988, Gaussian, Inc.),
 the Gaussian 86(TM) system (copyright 1986, Carnegie Mellon
 University), and the Gaussian 82(TM) system (copyright 1983,
 Carnegie Mellon University). Gaussian is a federally registered
 trademark of Gaussian, Inc.
  
 This software contains proprietary and confidential information,
 including trade secrets, belonging to Gaussian, Inc.
  
 This software is provided under written license and may be
 used, copied, transmitted, or stored only in accord with that
 written license.
  
 The following legend is applicable only to US Government
 contracts under FAR:
  
                    RESTRICTED RIGHTS LEGEND
  
 Use, reproduction and disclosure by the US Government is
 subject to restrictions as set forth in subparagraphs (a)
 and (c) of the Commercial Computer Software - Restricted
 Rights clause in FAR 52.227-19.
  
 Gaussian, Inc.
 340 Quinnipiac St., Bldg. 40, Wallingford CT 06492
  
  
 ---------------------------------------------------------------
 Warning -- This program may not be used in any manner that
 competes with the business of Gaussian, Inc. or will provide
 assistance to any competitor of Gaussian, Inc.  The licensee
 of this program is prohibited from giving any competitor of
 Gaussian, Inc. access to this program.  By using this program,
 the user acknowledges that Gaussian, Inc. is engaged in the
 business of creating and licensing software in the field of
 computational chemistry and represents and warrants to the
 licensee that it is not a competitor of Gaussian, Inc. and that
 it will not use this program in any manner prohibited above.
 ---------------------------------------------------------------
  

 Cite this work as:
 Gaussian 09, Revision E.01,
 M. J. Frisch, G. W. Trucks, H. B. Schlegel, G. E. Scuseria, 
 M. A. Robb, J. R. Cheeseman, G. Scalmani, V. Barone, B. Mennucci, 
 G. A. Petersson, H. Nakatsuji, M. Caricato, X. Li, H. P. Hratchian, 
 A. F. Izmaylov, J. Bloino, G. Zheng, J. L. Sonnenberg, M. Hada, 
 M. Ehara, K. Toyota, R. Fukuda, J. Hasegawa, M. Ishida, T. Nakajima, 
 Y. Honda, O. Kitao, H. Nakai, T. Vreven, J. A. Montgomery, Jr., 
 J. E. Peralta, F. Ogliaro, M. Bearpark, J. J. Heyd, E. Brothers, 
 K. N. Kudin, V. N. Staroverov, T. Keith, R. Kobayashi, J. Normand, 
 K. Raghavachari, A. Rendell, J. C. Burant, S. S. Iyengar, J. Tomasi, 
 M. Cossi, N. Rega, J. M. Millam, M. Klene, J. E. Knox, J. B. Cross, 
 V. Bakken, C. Adamo, J. Jaramillo, R. Gomperts, R. E. Stratmann, 
 O. Yazyev, A. J. Austin, R. Cammi, C. Pomelli, J. W. Ochterski, 
 R. L. Martin, K. Morokuma, V. G. Zakrzewski, G. A. Voth, 
 P. Salvador, J. J. Dannenberg, S. Dapprich, A. D. Daniels, 
 O. Farkas, J. B. Foresman, J. V. Ortiz, J. Cioslowski, 
 and D. J. Fox, Gaussian, Inc., Wallingford CT, 2013.
 
 ******************************************
 Gaussian 09:  ES64L-G09RevE.01 30-Nov-2015
                15-Oct-2016 
 ******************************************
 %chk=tct_Best_geom_CCSDT_VTZ.chk
 %nprocshared=16
 Will use up to   16 processors via shared memory.
 %mem=100GB
 ------------------
 #P CCSD(T) cc-pVTZ
 ------------------
 1/38=1/1;
 2/12=2,17=6,18=5,40=1/2;
 3/5=16,6=1,11=9,16=1,25=1,30=1/1,2,3;
 4//1;
 5/5=2,38=5/2;
 8/6=4,9=120000,10=1/1,4;
 9/5=7,14=2/13;
 6/7=2,8=2,9=2,10=2/1;
 99/5=1,9=1/99;
 Leave Link    1 at Sat Oct 15 15:00:55 2016, MaxMem= 13421772800 cpu:         2.4
 (Enter /share/pub/jeff/software/g09/g09/l101.exe)
 --------------------------
 start best geom PCCP paper
 --------------------------
 Symbolic Z-matrix:
 Charge =  0 Multiplicity = 1
 C
 O                    1    B1
 O                    1    B2       2    A1
 H                    2    B3       1    A2       3    D1       0
 C                    1    B4       3    A3       2    D2       0
 N                    5    B5       1    A4       3    D3       0
 H                    5    B6       1    A5       3    D4       0
 H                    5    B6       1    A5       3    D4m      0
 H                    6    B8       5    A7       1    D6       0
 H                    6    B8       5    A7       1    D6m      0
       Variables:
  B1                    1.34824                  
  B2                    1.20339                  
  A1                  122.72896                  
  B3                    0.96562                  
  A2                  106.37597                  
  B4                    1.51736                  
  A3                  123.80161                  
  B5                    1.44458                  
  A4                  118.62999                  
  B6                    1.0899                   
  A5                  105.95621                  
  D4                   56.19793                  
  D4m                 -56.19793                  
  B8                    1.00975                  
  A7                  111.34671                  
  D6                   59.71795                  
  D6m                 -59.71795                  
  D1                    0.                       
  D2                  180.                       
  D3                  180.                       
 
 NAtoms=     10 NQM=       10 NQMF=       0 NMMI=      0 NMMIF=      0
                NMic=       0 NMicF=      0.
                    Isotopes and Nuclear Properties:
 (Nuclear quadrupole moments (NQMom) in fm**2, nuclear magnetic moments (NMagM)
  in nuclear magnetons)

  Atom         1           2           3           4           5           6           7           8           9          10
 IAtWgt=          12          16          16           1          12          14           1           1           1           1
 AtmWgt=  12.0000000  15.9949146  15.9949146   1.0078250  12.0000000  14.0030740   1.0078250   1.0078250   1.0078250   1.0078250
 NucSpn=           0           0           0           1           0           2           1           1           1           1
 AtZEff=   0.0000000   0.0000000   0.0000000   0.0000000   0.0000000   0.0000000   0.0000000   0.0000000   0.0000000   0.0000000
 NQMom=    0.0000000   0.0000000   0.0000000   0.0000000   0.0000000   2.0440000   0.0000000   0.0000000   0.0000000   0.0000000
 NMagM=    0.0000000   0.0000000   0.0000000   2.7928460   0.0000000   0.4037610   2.7928460   2.7928460   2.7928460   2.7928460
 AtZNuc=   6.0000000   8.0000000   8.0000000   1.0000000   6.0000000   7.0000000   1.0000000   1.0000000   1.0000000   1.0000000
 Leave Link  101 at Sat Oct 15 15:00:56 2016, MaxMem= 13421772800 cpu:         1.2
 (Enter /share/pub/jeff/software/g09/g09/l202.exe)
                          Input orientation:                          
 ---------------------------------------------------------------------
 Center     Atomic      Atomic             Coordinates (Angstroms)
 Number     Number       Type             X           Y           Z
 ---------------------------------------------------------------------
      1          6           0        0.000000    0.000000    0.000000
      2          8           0        0.000000    0.000000    1.348240
      3          8           0        1.012337    0.000000   -0.650632
      4          1           0        0.926448    0.000000    1.620486
      5          6           0       -1.391833    0.000000   -0.604303
      6          7           0       -2.531719    0.000000    0.283092
      7          1           0       -1.434486   -0.870775   -1.258379
      8          1           0       -1.434486    0.870775   -1.258379
      9          1           0       -2.530429    0.812151    0.883095
     10          1           0       -2.530429   -0.812151    0.883095
 ---------------------------------------------------------------------
                    Distance matrix (angstroms):
                    1          2          3          4          5
     1  C    0.000000
     2  O    1.348240   0.000000
     3  O    1.203390   2.240606   0.000000
     4  H    1.866623   0.965621   2.272741   0.000000
     5  C    1.517360   2.397837   2.404616   3.213116   0.000000
     6  N    2.547497   2.746660   3.664993   3.707768   1.444580
     7  H    2.097502   3.100074   2.667311   3.823627   1.089900
     8  H    2.097502   3.100074   2.667311   3.823627   1.089900
     9  H    2.800449   2.697966   3.945009   3.626752   2.041653
    10  H    2.800449   2.697966   3.945009   3.626752   2.041653
                    6          7          8          9         10
     6  N    0.000000
     7  H    2.082859   0.000000
     8  H    2.082859   1.741549   0.000000
     9  H    1.009750   2.935854   2.406333   0.000000
    10  H    1.009750   2.406333   2.935854   1.624303   0.000000
 Stoichiometry    C2H5NO2
 Framework group  CS[SG(C2HNO2),X(H4)]
 Deg. of freedom    15
 Full point group                 CS      NOp   2
 Largest Abelian subgroup         CS      NOp   2
 Largest concise Abelian subgroup CS      NOp   2
                         Standard orientation:                         
 ---------------------------------------------------------------------
 Center     Atomic      Atomic             Coordinates (Angstroms)
 Number     Number       Type             X           Y           Z
 ---------------------------------------------------------------------
      1          6           0        0.000000    0.635900    0.000000
      2          8           0       -1.323949    0.381124    0.000000
      3          8           0        0.447609    1.752947    0.000000
      4          1           0       -1.766360    1.239435    0.000000
      5          6           0        0.856429   -0.616662   -0.000000
      6          7           0        0.200424   -1.903701   -0.000000
      7          1           0        1.506780   -0.534947    0.870775
      8          1           0        1.506780   -0.534947   -0.870775
      9          1           0       -0.389012   -2.015816   -0.812151
     10          1           0       -0.389012   -2.015816    0.812151
 ---------------------------------------------------------------------
 Rotational constants (GHZ):     10.0492563      4.0169293      2.9660702
 Leave Link  202 at Sat Oct 15 15:00:56 2016, MaxMem= 13421772800 cpu:         0.6
 (Enter /share/pub/jeff/software/g09/g09/l301.exe)
 Standard basis: CC-pVTZ (5D, 7F)
 Ernie: Thresh=  0.10000D-02 Tol=  0.10000D-05 Strict=F.
 Ernie:  15 primitive shells out of 170 were deleted.
 There are   161 symmetry adapted cartesian basis functions of A'  symmetry.
 There are    89 symmetry adapted cartesian basis functions of A"  symmetry.
 There are   138 symmetry adapted basis functions of A'  symmetry.
 There are    82 symmetry adapted basis functions of A"  symmetry.
   220 basis functions,   345 primitive gaussians,   250 cartesian basis functions
    20 alpha electrons       20 beta electrons
       nuclear repulsion energy       180.0072551375 Hartrees.
 IExCor=    0 DFT=F Ex=HF Corr=None ExCW=0 ScaHFX=  1.000000
 ScaDFX=  1.000000  1.000000  1.000000  1.000000 ScalE2=  1.000000  1.000000
 IRadAn=      0 IRanWt=     -1 IRanGd=            0 ICorTp=0 IEmpDi=  4
 NAtoms=   10 NActive=   10 NUniq=    8 SFac= 1.56D+00 NAtFMM=   60 NAOKFM=F Big=F
 Integral buffers will be    131072 words long.
 Raffenetti 1 integral format.
 Two-electron integral symmetry is turned on.
 Leave Link  301 at Sat Oct 15 15:00:56 2016, MaxMem= 13421772800 cpu:         1.9
 (Enter /share/pub/jeff/software/g09/g09/l302.exe)
 NPDir=0 NMtPBC=     1 NCelOv=     1 NCel=       1 NClECP=     1 NCelD=      1
         NCelK=      1 NCelE2=     1 NClLst=     1 CellRange=     0.0.
 One-electron integrals computed using PRISM.
 One-electron integral symmetry used in STVInt
 NBasis=   220 RedAO= T EigKep=  6.85D-04  NBF=   138    82
 NBsUse=   220 1.00D-06 EigRej= -1.00D+00 NBFU=   138    82
 Leave Link  302 at Sat Oct 15 15:00:56 2016, MaxMem= 13421772800 cpu:         3.0
 (Enter /share/pub/jeff/software/g09/g09/l303.exe)
 DipDrv:  MaxL=1.
 Leave Link  303 at Sat Oct 15 15:00:56 2016, MaxMem= 13421772800 cpu:         0.5
 (Enter /share/pub/jeff/software/g09/g09/l401.exe)
 ExpMin= 1.03D-01 ExpMax= 1.53D+04 ExpMxC= 5.22D+02 IAcc=1 IRadAn=         1 AccDes= 0.00D+00
 Harris functional with IExCor=  205 and IRadAn=       1 diagonalized for initial guess.
 HarFok:  IExCor=  205 AccDes= 0.00D+00 IRadAn=         1 IDoV= 1 UseB2=F ITyADJ=14
 ICtDFT=  3500011 ScaDFX=  1.000000  1.000000  1.000000  1.000000
 FoFCou: FMM=F IPFlag=           0 FMFlag=      100000 FMFlg1=           0
         NFxFlg=           0 DoJE=T BraDBF=F KetDBF=T FulRan=T
         wScrn=  0.000000 ICntrl=     500 IOpCl=  0 I1Cent=   200000004 NGrid=           0
         NMat0=    1 NMatS0=      1 NMatT0=    0 NMatD0=    1 NMtDS0=    0 NMtDT0=    0
 Petite list used in FoFCou.
 Harris En= -283.225037608572    
 JPrj=0 DoOrth=F DoCkMO=F.
 Initial guess orbital symmetries:
       Occupied  (A') (A') (A') (A') (A') (A') (A') (A') (A') (A')
                 (A") (A') (A') (A') (A") (A') (A") (A") (A') (A')
       Virtual   (A") (A') (A') (A') (A") (A') (A") (A') (A') (A')
                 (A') (A") (A") (A') (A') (A') (A") (A') (A") (A')
                 (A') (A') (A') (A") (A') (A") (A') (A') (A") (A')
                 (A') (A") (A") (A') (A') (A") (A") (A') (A') (A")
                 (A') (A") (A') (A') (A") (A') (A") (A') (A") (A')
                 (A') (A') (A") (A') (A") (A') (A') (A') (A") (A')
                 (A") (A') (A') (A') (A") (A') (A") (A') (A") (A')
                 (A") (A') (A') (A") (A') (A') (A") (A') (A') (A')
                 (A") (A') (A') (A") (A') (A') (A") (A') (A") (A')
                 (A") (A') (A') (A") (A") (A") (A') (A') (A') (A")
                 (A') (A") (A') (A") (A') (A") (A") (A') (A") (A")
                 (A') (A") (A') (A') (A") (A') (A") (A') (A") (A')
                 (A') (A') (A') (A") (A") (A") (A') (A") (A') (A')
                 (A') (A") (A') (A") (A') (A') (A') (A") (A") (A')
                 (A") (A') (A") (A') (A') (A') (A') (A") (A') (A')
                 (A") (A") (A') (A') (A') (A") (A') (A') (A") (A")
                 (A') (A') (A') (A") (A') (A") (A') (A') (A') (A")
                 (A') (A") (A') (A") (A") (A') (A") (A") (A') (A')
                 (A") (A') (A") (A') (A") (A') (A") (A') (A") (A")
                 (A') (A') (A') (A') (A') (A') (A') (A') (A') (A')
 The electronic state of the initial guess is 1-A'.
 Leave Link  401 at Sat Oct 15 15:00:57 2016, MaxMem= 13421772800 cpu:         4.2
 (Enter /share/pub/jeff/software/g09/g09/l502.exe)
 Closed shell SCF:
 Using DIIS extrapolation, IDIIS=  1040.
 Integral symmetry usage will be decided dynamically.
 Keep R1 ints in memory in symmetry-blocked form, NReq=444223844.
 IVT=      212174 IEndB=      212174 NGot= 13421772800 MDV= 13273049382
 LenX= 13273049382 LenY= 13272986441
 Requested convergence on RMS density matrix=1.00D-08 within 128 cycles.
 Requested convergence on MAX density matrix=1.00D-06.
 Requested convergence on             energy=1.00D-06.
 No special actions if energy rises.
 FoFCou: FMM=F IPFlag=           0 FMFlag=           0 FMFlg1=           0
         NFxFlg=           0 DoJE=F BraDBF=F KetDBF=F FulRan=T
         wScrn=  0.000000 ICntrl=     600 IOpCl=  0 I1Cent=           0 NGrid=           0
         NMat0=    1 NMatS0=  24310 NMatT0=    0 NMatD0=    1 NMtDS0=    0 NMtDT0=    0
 Petite list used in FoFCou.

 Cycle   1  Pass 1  IDiag  1:
 E= -282.704668827170    
 DIIS: error= 3.65D-02 at cycle   1 NSaved=   1.
 NSaved= 1 IEnMin= 1 EnMin= -282.704668827170     IErMin= 1 ErrMin= 3.65D-02
 ErrMax= 3.65D-02  0.00D+00 EMaxC= 1.00D-01 BMatC= 5.78D-01 BMatP= 5.78D-01
 IDIUse=3 WtCom= 6.35D-01 WtEn= 3.65D-01
 Coeff-Com:  0.100D+01
 Coeff-En:   0.100D+01
 Coeff:      0.100D+01
 Gap=     0.458 Goal=   None    Shift=    0.000
 GapD=    0.458 DampG=2.000 DampE=0.500 DampFc=1.0000 IDamp=-1.
 RMSDP=2.09D-03 MaxDP=7.56D-02              OVMax= 1.21D-01

 Cycle   2  Pass 1  IDiag  1:
 E= -282.892109211154     Delta-E=       -0.187440383984 Rises=F Damp=F
 DIIS: error= 1.81D-02 at cycle   2 NSaved=   2.
 NSaved= 2 IEnMin= 2 EnMin= -282.892109211154     IErMin= 2 ErrMin= 1.81D-02
 ErrMax= 1.81D-02  0.00D+00 EMaxC= 1.00D-01 BMatC= 7.88D-02 BMatP= 5.78D-01
 IDIUse=3 WtCom= 8.19D-01 WtEn= 1.81D-01
 Coeff-Com:  0.202D+00 0.798D+00
 Coeff-En:   0.000D+00 0.100D+01
 Coeff:      0.166D+00 0.834D+00
 Gap=     0.562 Goal=   None    Shift=    0.000
 RMSDP=1.05D-03 MaxDP=4.98D-02 DE=-1.87D-01 OVMax= 5.30D-02

 Cycle   3  Pass 1  IDiag  1:
 E= -282.937689269122     Delta-E=       -0.045580057968 Rises=F Damp=F
 DIIS: error= 5.70D-03 at cycle   3 NSaved=   3.
 NSaved= 3 IEnMin= 3 EnMin= -282.937689269122     IErMin= 3 ErrMin= 5.70D-03
 ErrMax= 5.70D-03  0.00D+00 EMaxC= 1.00D-01 BMatC= 1.09D-02 BMatP= 7.88D-02
 IDIUse=3 WtCom= 9.43D-01 WtEn= 5.70D-02
 Coeff-Com: -0.232D-01 0.243D+00 0.781D+00
 Coeff-En:   0.000D+00 0.000D+00 0.100D+01
 Coeff:     -0.219D-01 0.229D+00 0.793D+00
 Gap=     0.535 Goal=   None    Shift=    0.000
 RMSDP=2.19D-04 MaxDP=8.23D-03 DE=-4.56D-02 OVMax= 2.57D-02

 Cycle   4  Pass 1  IDiag  1:
 E= -282.944520627864     Delta-E=       -0.006831358742 Rises=F Damp=F
 DIIS: error= 1.24D-03 at cycle   4 NSaved=   4.
 NSaved= 4 IEnMin= 4 EnMin= -282.944520627864     IErMin= 4 ErrMin= 1.24D-03
 ErrMax= 1.24D-03  0.00D+00 EMaxC= 1.00D-01 BMatC= 3.91D-04 BMatP= 1.09D-02
 IDIUse=3 WtCom= 9.88D-01 WtEn= 1.24D-02
 Coeff-Com: -0.111D-01 0.526D-01 0.250D+00 0.709D+00
 Coeff-En:   0.000D+00 0.000D+00 0.000D+00 0.100D+01
 Coeff:     -0.110D-01 0.519D-01 0.247D+00 0.712D+00
 Gap=     0.532 Goal=   None    Shift=    0.000
 RMSDP=6.48D-05 MaxDP=2.12D-03 DE=-6.83D-03 OVMax= 4.45D-03

 Cycle   5  Pass 1  IDiag  1:
 E= -282.944850296716     Delta-E=       -0.000329668852 Rises=F Damp=F
 DIIS: error= 5.61D-04 at cycle   5 NSaved=   5.
 NSaved= 5 IEnMin= 5 EnMin= -282.944850296716     IErMin= 5 ErrMin= 5.61D-04
 ErrMax= 5.61D-04  0.00D+00 EMaxC= 1.00D-01 BMatC= 2.64D-05 BMatP= 3.91D-04
 IDIUse=3 WtCom= 9.94D-01 WtEn= 5.61D-03
 Coeff-Com:  0.189D-02-0.227D-01-0.757D-01 0.398D-01 0.106D+01
 Coeff-En:   0.000D+00 0.000D+00 0.000D+00 0.000D+00 0.100D+01
 Coeff:      0.188D-02-0.226D-01-0.752D-01 0.396D-01 0.106D+01
 Gap=     0.533 Goal=   None    Shift=    0.000
 RMSDP=3.56D-05 MaxDP=1.09D-03 DE=-3.30D-04 OVMax= 3.63D-03

 Cycle   6  Pass 1  IDiag  1:
 E= -282.944898383360     Delta-E=       -0.000048086644 Rises=F Damp=F
 DIIS: error= 1.39D-04 at cycle   6 NSaved=   6.
 NSaved= 6 IEnMin= 6 EnMin= -282.944898383360     IErMin= 6 ErrMin= 1.39D-04
 ErrMax= 1.39D-04  0.00D+00 EMaxC= 1.00D-01 BMatC= 4.17D-06 BMatP= 2.64D-05
 IDIUse=3 WtCom= 9.99D-01 WtEn= 1.39D-03
 Coeff-Com:  0.156D-02-0.114D-01-0.439D-01-0.765D-01 0.235D+00 0.895D+00
 Coeff-En:   0.000D+00 0.000D+00 0.000D+00 0.000D+00 0.000D+00 0.100D+01
 Coeff:      0.156D-02-0.114D-01-0.439D-01-0.763D-01 0.235D+00 0.895D+00
 Gap=     0.533 Goal=   None    Shift=    0.000
 RMSDP=1.58D-05 MaxDP=6.69D-04 DE=-4.81D-05 OVMax= 9.94D-04

 Cycle   7  Pass 1  IDiag  1:
 E= -282.944905507989     Delta-E=       -0.000007124629 Rises=F Damp=F
 DIIS: error= 7.82D-05 at cycle   7 NSaved=   7.
 NSaved= 7 IEnMin= 7 EnMin= -282.944905507989     IErMin= 7 ErrMin= 7.82D-05
 ErrMax= 7.82D-05  0.00D+00 EMaxC= 1.00D-01 BMatC= 4.73D-07 BMatP= 4.17D-06
 IDIUse=1 WtCom= 1.00D+00 WtEn= 0.00D+00
 Coeff-Com: -0.159D-03 0.231D-02 0.963D-02-0.128D-01-0.114D+00-0.229D-02
 Coeff-Com:  0.112D+01
 Coeff:     -0.159D-03 0.231D-02 0.963D-02-0.128D-01-0.114D+00-0.229D-02
 Coeff:      0.112D+01
 Gap=     0.533 Goal=   None    Shift=    0.000
 RMSDP=6.03D-06 MaxDP=1.84D-04 DE=-7.12D-06 OVMax= 6.77D-04

 Cycle   8  Pass 1  IDiag  1:
 E= -282.944906779362     Delta-E=       -0.000001271374 Rises=F Damp=F
 DIIS: error= 2.01D-05 at cycle   8 NSaved=   8.
 NSaved= 8 IEnMin= 8 EnMin= -282.944906779362     IErMin= 8 ErrMin= 2.01D-05
 ErrMax= 2.01D-05  0.00D+00 EMaxC= 1.00D-01 BMatC= 7.06D-08 BMatP= 4.73D-07
 IDIUse=1 WtCom= 1.00D+00 WtEn= 0.00D+00
 Coeff-Com: -0.215D-03 0.151D-02 0.608D-02 0.770D-02-0.215D-01-0.120D+00
 Coeff-Com: -0.944D-01 0.122D+01
 Coeff:     -0.215D-03 0.151D-02 0.608D-02 0.770D-02-0.215D-01-0.120D+00
 Coeff:     -0.944D-01 0.122D+01
 Gap=     0.533 Goal=   None    Shift=    0.000
 RMSDP=2.47D-06 MaxDP=7.04D-05 DE=-1.27D-06 OVMax= 3.00D-04

 Cycle   9  Pass 1  IDiag  1:
 E= -282.944906987390     Delta-E=       -0.000000208027 Rises=F Damp=F
 DIIS: error= 7.52D-06 at cycle   9 NSaved=   9.
 NSaved= 9 IEnMin= 9 EnMin= -282.944906987390     IErMin= 9 ErrMin= 7.52D-06
 ErrMax= 7.52D-06  0.00D+00 EMaxC= 1.00D-01 BMatC= 8.48D-09 BMatP= 7.06D-08
 IDIUse=1 WtCom= 1.00D+00 WtEn= 0.00D+00
 Coeff-Com: -0.125D-04-0.726D-04-0.343D-03 0.176D-02 0.138D-01-0.158D-01
 Coeff-Com: -0.152D+00 0.147D+00 0.101D+01
 Coeff:     -0.125D-04-0.726D-04-0.343D-03 0.176D-02 0.138D-01-0.158D-01
 Coeff:     -0.152D+00 0.147D+00 0.101D+01
 Gap=     0.533 Goal=   None    Shift=    0.000
 RMSDP=7.00D-07 MaxDP=1.97D-05 DE=-2.08D-07 OVMax= 8.55D-05

 Cycle  10  Pass 1  IDiag  1:
 E= -282.944907007244     Delta-E=       -0.000000019855 Rises=F Damp=F
 DIIS: error= 2.16D-06 at cycle  10 NSaved=  10.
 NSaved=10 IEnMin=10 EnMin= -282.944907007244     IErMin=10 ErrMin= 2.16D-06
 ErrMax= 2.16D-06  0.00D+00 EMaxC= 1.00D-01 BMatC= 9.11D-10 BMatP= 8.48D-09
 IDIUse=1 WtCom= 1.00D+00 WtEn= 0.00D+00
 Coeff-Com:  0.273D-04-0.210D-03-0.817D-03-0.133D-02 0.436D-02 0.142D-01
 Coeff-Com:  0.759D-02-0.158D+00 0.487D-01 0.109D+01
 Coeff:      0.273D-04-0.210D-03-0.817D-03-0.133D-02 0.436D-02 0.142D-01
 Coeff:      0.759D-02-0.158D+00 0.487D-01 0.109D+01
 Gap=     0.533 Goal=   None    Shift=    0.000
 RMSDP=2.16D-07 MaxDP=7.21D-06 DE=-1.99D-08 OVMax= 2.41D-05

 Cycle  11  Pass 1  IDiag  1:
 E= -282.944907009256     Delta-E=       -0.000000002012 Rises=F Damp=F
 DIIS: error= 5.12D-07 at cycle  11 NSaved=  11.
 NSaved=11 IEnMin=11 EnMin= -282.944907009256     IErMin=11 ErrMin= 5.12D-07
 ErrMax= 5.12D-07  0.00D+00 EMaxC= 1.00D-01 BMatC= 6.22D-11 BMatP= 9.11D-10
 IDIUse=1 WtCom= 1.00D+00 WtEn= 0.00D+00
 Coeff-Com:  0.975D-06 0.321D-05 0.490D-04-0.135D-03-0.904D-03 0.309D-03
 Coeff-Com:  0.103D-01-0.109D-02-0.864D-01-0.588D-01 0.114D+01
 Coeff:      0.975D-06 0.321D-05 0.490D-04-0.135D-03-0.904D-03 0.309D-03
 Coeff:      0.103D-01-0.109D-02-0.864D-01-0.588D-01 0.114D+01
 Gap=     0.533 Goal=   None    Shift=    0.000
 RMSDP=6.17D-08 MaxDP=1.71D-06 DE=-2.01D-09 OVMax= 4.97D-06

 Cycle  12  Pass 1  IDiag  1:
 E= -282.944907009416     Delta-E=       -0.000000000160 Rises=F Damp=F
 DIIS: error= 1.64D-07 at cycle  12 NSaved=  12.
 NSaved=12 IEnMin=12 EnMin= -282.944907009416     IErMin=12 ErrMin= 1.64D-07
 ErrMax= 1.64D-07  0.00D+00 EMaxC= 1.00D-01 BMatC= 3.76D-12 BMatP= 6.22D-11
 IDIUse=1 WtCom= 1.00D+00 WtEn= 0.00D+00
 Coeff-Com: -0.178D-05 0.135D-04 0.561D-04 0.787D-04-0.245D-03-0.101D-02
 Coeff-Com: -0.124D-02 0.127D-01-0.211D-02-0.767D-01-0.203D-01 0.109D+01
 Coeff:     -0.178D-05 0.135D-04 0.561D-04 0.787D-04-0.245D-03-0.101D-02
 Coeff:     -0.124D-02 0.127D-01-0.211D-02-0.767D-01-0.203D-01 0.109D+01
 Gap=     0.533 Goal=   None    Shift=    0.000
 RMSDP=1.52D-08 MaxDP=4.47D-07 DE=-1.60D-10 OVMax= 1.13D-06

 Cycle  13  Pass 1  IDiag  1:
 E= -282.944907009390     Delta-E=        0.000000000026 Rises=F Damp=F
 DIIS: error= 5.30D-08 at cycle  13 NSaved=  13.
 NSaved=13 IEnMin=12 EnMin= -282.944907009416     IErMin=13 ErrMin= 5.30D-08
 ErrMax= 5.30D-08  0.00D+00 EMaxC= 1.00D-01 BMatC= 3.56D-13 BMatP= 3.76D-12
 IDIUse=1 WtCom= 1.00D+00 WtEn= 0.00D+00
 Coeff-Com: -0.239D-07-0.812D-06-0.650D-05 0.573D-05 0.108D-03 0.219D-04
 Coeff-Com: -0.114D-02 0.173D-03 0.835D-02 0.490D-02-0.111D+00 0.416D-01
 Coeff-Com:  0.106D+01
 Coeff:     -0.239D-07-0.812D-06-0.650D-05 0.573D-05 0.108D-03 0.219D-04
 Coeff:     -0.114D-02 0.173D-03 0.835D-02 0.490D-02-0.111D+00 0.416D-01
 Coeff:      0.106D+01
 Gap=     0.533 Goal=   None    Shift=    0.000
 RMSDP=4.43D-09 MaxDP=1.27D-07 DE= 2.59D-11 OVMax= 2.95D-07

 SCF Done:  E(RHF) =  -282.944907009     A.U. after   13 cycles
            NFock= 13  Conv=0.44D-08     -V/T= 2.0013
 KE= 2.825827733618D+02 PE=-1.026419025790D+03 EE= 2.808840902815D+02
 Leave Link  502 at Sat Oct 15 15:01:02 2016, MaxMem= 13421772800 cpu:        74.8
 (Enter /share/pub/jeff/software/g09/g09/l801.exe)
 Windowed orbitals will be sorted by symmetry type.
 ExpMin= 1.03D-01 ExpMax= 1.53D+04 ExpMxC= 5.22D+02 IAcc=3 IRadAn=         5 AccDes= 0.00D+00
 HarFok:  IExCor=  205 AccDes= 0.00D+00 IRadAn=         5 IDoV=-2 UseB2=F ITyADJ=14
 ICtDFT= 12500011 ScaDFX=  1.000000  1.000000  1.000000  1.000000
 Largest valence mixing into a core orbital is  2.06D-04
 Largest core mixing into a valence orbital is  3.08D-05
 Range of M.O.s used for correlation:     6   220
 NBasis=   220 NAE=    20 NBE=    20 NFC=     5 NFV=     0
 NROrb=    215 NOA=    15 NOB=    15 NVA=   200 NVB=   200

 **** Warning!!: The largest alpha MO coefficient is  0.10087967D+02

 Leave Link  801 at Sat Oct 15 15:01:02 2016, MaxMem= 13421772800 cpu:         1.3
 (Enter /share/pub/jeff/software/g09/g09/l804.exe)
 Closed-shell transformation, MDV= 13421772800 ITran=4 ISComp=2.
 Semi-Direct transformation.
 ModeAB=           4 MOrb=            15 LenV=   13420464373
 LASXX=     35746231 LTotXX=    35746231 LenRXX=    72023863
 LTotAB=    36277632 MaxLAS=    80018700 LenRXY=           0
 NonZer=   107770094 LenScr=   162004992 LnRSAI=    80018700
 LnScr1=   120061952 LExtra=           0 Total=    434109507
 MaxDsk=          -1 SrtSym=           T ITran=            4
 DoSDTr:  NPSUse= 16
 JobTyp=0 Pass  1:  I=   1 to  15.
 (rs|ai) integrals will be sorted in core.
 Complete sort for first half transformation.
 First half transformation complete.
 Begin second half transformation for I=  10.
 Complete sort for second half transformation.
 Second half transformation complete.
 Spin components of T(2) and E(2):
     alpha-alpha T2 =       0.3536346753D-01 E2=     -0.1268894054D+00
     alpha-beta  T2 =       0.1967404373D+00 E2=     -0.7553334748D+00
     beta-beta   T2 =       0.3536346753D-01 E2=     -0.1268894054D+00
 ANorm=    0.1125818534D+01
 E2 =    -0.1009112286D+01 EUMP2 =    -0.28395401929508D+03
 Leave Link  804 at Sat Oct 15 15:01:09 2016, MaxMem= 13421772800 cpu:       116.0
 (Enter /share/pub/jeff/software/g09/g09/l913.exe)
 CIDS:  MDV= 13421772800.
 Frozen-core window:  NFC=   5 NFV=   0.
 IFCWin=0 IBDFC=1 NFBD=     0     0 NFCmp=     0     0 NFFFC=     0     0
 Using DD3R+UMP44R for 1st iteration, S=T.
 Using DD4RQ for 2nd and later iterations.
 Keep R2 and R3 ints in memory in symmetry-blocked form, NReq=445433445.
 FoFCou: FMM=F IPFlag=           0 FMFlag=           0 FMFlg1=           0
         NFxFlg=           0 DoJE=F BraDBF=F KetDBF=F FulRan=T
         wScrn=  0.000000 ICntrl=     600 IOpCl=  0 I1Cent=           0 NGrid=           0
         NMat0=    1 NMatS0=  24310 NMatT0=    0 NMatD0=    1 NMtDS0=    0 NMtDT0=    0
 Petite list used in FoFCou.
 CCSD(T)
 =======
 Iterations=  50 Convergence= 0.100D-06
 Iteration Nr.   1
 **********************
 DD1Dir will call FoFMem   1 times, MxPair=       240
 NAB=   120 NAA=     0 NBB=     0.
 MP4(R+Q)=  0.21613736D-01
 Maximum subspace dimension=  5
 Norm of the A-vectors is  1.4182263D+00 conv= 1.00D-05.
 RLE energy=       -0.9987486172
 E3=       -0.11668136D-01        EUMP3=      -0.28396568743D+03
 E4(DQ)=    0.12121743D-02        UMP4(DQ)=   -0.28396447526D+03
 E4(SDQ)=  -0.98802843D-02        UMP4(SDQ)=  -0.28397556772D+03
 VARIATIONAL ENERGIES WITH THE FIRST-ORDER WAVEFUNCTION:
 DE(Corr)= -0.99864135     E(Corr)=     -283.94354836    
 NORM(A)=   0.11260146D+01
 Iteration Nr.   2
 **********************
 DD1Dir will call FoFMem   1 times, MxPair=       240
 NAB=   120 NAA=     0 NBB=     0.
 Norm of the A-vectors is  5.2313804D-01 conv= 1.00D-05.
 RLE energy=       -1.0259298046
 DE(Corr)=  -1.0255230     E(CORR)=     -283.97043005     Delta=-2.69D-02
 NORM(A)=   0.11352274D+01
 Iteration Nr.   3
 **********************
 DD1Dir will call FoFMem   1 times, MxPair=       240
 NAB=   120 NAA=     0 NBB=     0.
 Norm of the A-vectors is  1.4138881D-01 conv= 1.00D-05.
 RLE energy=       -1.0274361843
 DE(Corr)=  -1.0251266     E(CORR)=     -283.97003362     Delta= 3.96D-04
 NORM(A)=   0.11377056D+01
 Iteration Nr.   4
 **********************
 DD1Dir will call FoFMem   1 times, MxPair=       240
 NAB=   120 NAA=     0 NBB=     0.
 Norm of the A-vectors is  5.7018718D-02 conv= 1.00D-05.
 RLE energy=       -1.0276168953
 DE(Corr)=  -1.0274317     E(CORR)=     -283.97233873     Delta=-2.31D-03
 NORM(A)=   0.11384640D+01
 Iteration Nr.   5
 **********************
 DD1Dir will call FoFMem   1 times, MxPair=       240
 NAB=   120 NAA=     0 NBB=     0.
 Norm of the A-vectors is  1.2686524D-02 conv= 1.00D-05.
 RLE energy=       -1.0277254064
 DE(Corr)=  -1.0276789     E(CORR)=     -283.97258594     Delta=-2.47D-04
 NORM(A)=   0.11387045D+01
 Iteration Nr.   6
 **********************
 DD1Dir will call FoFMem   1 times, MxPair=       240
 NAB=   120 NAA=     0 NBB=     0.
 Norm of the A-vectors is  6.2446769D-03 conv= 1.00D-05.
 RLE energy=       -1.0277061581
 DE(Corr)=  -1.0277017     E(CORR)=     -283.97260870     Delta=-2.28D-05
 NORM(A)=   0.11387329D+01
 Iteration Nr.   7
 **********************
 DD1Dir will call FoFMem   1 times, MxPair=       240
 NAB=   120 NAA=     0 NBB=     0.
 Norm of the A-vectors is  2.2757327D-03 conv= 1.00D-05.
 RLE energy=       -1.0276900594
 DE(Corr)=  -1.0277029     E(CORR)=     -283.97260987     Delta=-1.18D-06
 NORM(A)=   0.11387353D+01
 Iteration Nr.   8
 **********************
 DD1Dir will call FoFMem   1 times, MxPair=       240
 NAB=   120 NAA=     0 NBB=     0.
 Norm of the A-vectors is  8.1994787D-04 conv= 1.00D-05.
 RLE energy=       -1.0277001800
 DE(Corr)=  -1.0277011     E(CORR)=     -283.97260812     Delta= 1.75D-06
 NORM(A)=   0.11387397D+01
 Iteration Nr.   9
 **********************
 DD1Dir will call FoFMem   1 times, MxPair=       240
 NAB=   120 NAA=     0 NBB=     0.
 Norm of the A-vectors is  2.9609701D-04 conv= 1.00D-05.
 RLE energy=       -1.0277002544
 DE(Corr)=  -1.0277006     E(CORR)=     -283.97260756     Delta= 5.56D-07
 NORM(A)=   0.11387401D+01
 Iteration Nr.  10
 **********************
 DD1Dir will call FoFMem   1 times, MxPair=       240
 NAB=   120 NAA=     0 NBB=     0.
 Norm of the A-vectors is  1.1345293D-04 conv= 1.00D-05.
 RLE energy=       -1.0277011547
 DE(Corr)=  -1.0277011     E(CORR)=     -283.97260814     Delta=-5.76D-07
 NORM(A)=   0.11387407D+01
 Iteration Nr.  11
 **********************
 DD1Dir will call FoFMem   1 times, MxPair=       240
 NAB=   120 NAA=     0 NBB=     0.
 Norm of the A-vectors is  5.6320739D-05 conv= 1.00D-05.
 RLE energy=       -1.0277015406
 DE(Corr)=  -1.0277014     E(CORR)=     -283.97260841     Delta=-2.70D-07
 NORM(A)=   0.11387411D+01
 Iteration Nr.  12
 **********************
 DD1Dir will call FoFMem   1 times, MxPair=       240
 NAB=   120 NAA=     0 NBB=     0.
 Norm of the A-vectors is  2.4084293D-05 conv= 1.00D-05.
 RLE energy=       -1.0277016051
 DE(Corr)=  -1.0277016     E(CORR)=     -283.97260856     Delta=-1.52D-07
 NORM(A)=   0.11387412D+01
 Iteration Nr.  13
 **********************
 DD1Dir will call FoFMem   1 times, MxPair=       240
 NAB=   120 NAA=     0 NBB=     0.
 Norm of the A-vectors is  9.8072414D-06 conv= 1.00D-05.
 RLE energy=       -1.0277016360
 DE(Corr)=  -1.0277016     E(CORR)=     -283.97260863     Delta=-6.32D-08
 NORM(A)=   0.11387413D+01
 CI/CC converged in   13 iterations to DelEn=-6.32D-08 Conv= 1.00D-07 ErrA1= 9.81D-06 Conv= 1.00D-05
 Largest amplitude= 4.06D-02
 IPart=  6 IA=   12   10.72% done.
 IPart=  4 IA=   23   20.84% done.
 IPart= 11 IA=   34   30.35% done.
 IPart=  5 IA=   46   40.03% done.
 IPart=  7 IA=   60   50.40% done.
 IPart=  7 IA=   75   60.43% done.
 IPart= 12 IA=   92   70.42% done.
 IPart=  1 IA=  112   80.32% done.
 IPart= 12 IA=  138   90.19% done.
 Time for triples=     3761.97 seconds.
 T4(CCSD)= -0.44453578D-01
 T5(CCSD)=  0.20304159D-02
 CCSD(T)= -0.28401503179D+03
 Discarding MO integrals.
 Leave Link  913 at Sat Oct 15 15:08:41 2016, MaxMem= 13421772800 cpu:      5521.6
 (Enter /share/pub/jeff/software/g09/g09/l601.exe)
 Copying SCF densities to generalized density rwf, IOpCl= 0 IROHF=0.

 **********************************************************************

            Population analysis using the SCF density.

 **********************************************************************

 Orbital symmetries:
       Occupied  (A') (A') (A') (A') (A') (A') (A') (A') (A') (A')
                 (A') (A") (A') (A") (A') (A') (A") (A') (A") (A')
       Virtual   (A') (A') (A") (A') (A") (A") (A') (A') (A') (A')
                 (A") (A') (A") (A') (A') (A") (A') (A") (A') (A')
                 (A') (A') (A') (A") (A') (A") (A') (A') (A") (A')
                 (A") (A') (A") (A') (A') (A") (A') (A") (A') (A")
                 (A") (A') (A') (A') (A") (A') (A') (A") (A") (A')
                 (A') (A') (A") (A') (A') (A") (A') (A') (A") (A')
                 (A") (A') (A') (A') (A") (A') (A") (A') (A") (A')
                 (A') (A") (A') (A") (A') (A') (A") (A') (A') (A')
                 (A") (A') (A') (A") (A') (A') (A") (A") (A') (A')
                 (A") (A') (A") (A') (A") (A') (A") (A') (A') (A")
                 (A') (A") (A") (A') (A") (A") (A') (A") (A') (A")
                 (A') (A') (A") (A') (A") (A") (A') (A") (A') (A')
                 (A') (A') (A") (A') (A") (A") (A') (A") (A') (A')
                 (A') (A") (A') (A') (A') (A") (A") (A') (A") (A")
                 (A') (A") (A') (A') (A') (A') (A") (A') (A') (A")
                 (A') (A") (A') (A') (A') (A") (A") (A') (A') (A")
                 (A') (A') (A') (A') (A") (A') (A") (A') (A") (A')
                 (A") (A') (A') (A") (A") (A") (A') (A') (A") (A')
                 (A") (A') (A") (A') (A") (A') (A") (A') (A") (A")
                 (A') (A') (A') (A') (A') (A') (A') (A') (A') (A')
 The electronic state is 1-A'.
 Alpha  occ. eigenvalues --  -20.61772 -20.54689 -15.55197 -11.38416 -11.27629
 Alpha  occ. eigenvalues --   -1.47149  -1.36509  -1.19908  -0.97302  -0.83094
 Alpha  occ. eigenvalues --   -0.70812  -0.69844  -0.69224  -0.62948  -0.59592
 Alpha  occ. eigenvalues --   -0.58065  -0.54552  -0.48422  -0.48052  -0.40226
 Alpha virt. eigenvalues --    0.13101   0.16338   0.16474   0.17705   0.19019
 Alpha virt. eigenvalues --    0.25559   0.30977   0.34969   0.37391   0.43727
 Alpha virt. eigenvalues --    0.45465   0.45666   0.46717   0.48657   0.53554
 Alpha virt. eigenvalues --    0.53894   0.57932   0.59624   0.60001   0.62904
 Alpha virt. eigenvalues --    0.64530   0.66680   0.70696   0.71332   0.73631
 Alpha virt. eigenvalues --    0.74738   0.76001   0.80389   0.82029   0.82951
 Alpha virt. eigenvalues --    0.87053   0.90274   0.92280   0.93781   0.96724
 Alpha virt. eigenvalues --    1.03412   1.06895   1.07377   1.12768   1.17797
 Alpha virt. eigenvalues --    1.20762   1.22520   1.26561   1.27071   1.28353
 Alpha virt. eigenvalues --    1.35616   1.37894   1.38718   1.40544   1.43579
 Alpha virt. eigenvalues --    1.48967   1.49697   1.50477   1.56677   1.59597
 Alpha virt. eigenvalues --    1.59923   1.65394   1.73367   1.78000   1.82940
 Alpha virt. eigenvalues --    1.84428   1.86813   1.90244   1.94741   1.95889
 Alpha virt. eigenvalues --    2.00714   2.02965   2.08117   2.25148   2.29013
 Alpha virt. eigenvalues --    2.32680   2.36945   2.42881   2.44690   2.47535
 Alpha virt. eigenvalues --    2.58595   2.60903   2.69042   2.76987   2.78585
 Alpha virt. eigenvalues --    2.82525   2.86089   2.92055   2.95914   3.00052
 Alpha virt. eigenvalues --    3.09813   3.10221   3.16070   3.16923   3.20257
 Alpha virt. eigenvalues --    3.22771   3.26174   3.29536   3.32548   3.38159
 Alpha virt. eigenvalues --    3.40583   3.41403   3.45747   3.46768   3.47878
 Alpha virt. eigenvalues --    3.54247   3.55798   3.58838   3.60959   3.61967
 Alpha virt. eigenvalues --    3.63699   3.64139   3.72244   3.72919   3.77208
 Alpha virt. eigenvalues --    3.79847   3.83712   3.84020   3.86264   3.88326
 Alpha virt. eigenvalues --    3.90582   3.91665   3.99141   3.99478   4.03585
 Alpha virt. eigenvalues --    4.06396   4.12172   4.13820   4.17515   4.19547
 Alpha virt. eigenvalues --    4.24031   4.25097   4.27217   4.28836   4.34716
 Alpha virt. eigenvalues --    4.37091   4.42195   4.42278   4.43740   4.50425
 Alpha virt. eigenvalues --    4.54195   4.58728   4.60839   4.61005   4.66053
 Alpha virt. eigenvalues --    4.69141   4.70945   4.77712   4.81618   4.82133
 Alpha virt. eigenvalues --    4.89846   5.03840   5.05077   5.15834   5.21892
 Alpha virt. eigenvalues --    5.23719   5.31003   5.35733   5.36943   5.48891
 Alpha virt. eigenvalues --    5.49692   5.55814   5.58438   5.61124   5.61440
 Alpha virt. eigenvalues --    5.66935   5.72276   5.75593   5.86943   5.86975
 Alpha virt. eigenvalues --    5.96352   5.97947   6.05847   6.09618   6.16743
 Alpha virt. eigenvalues --    6.17790   6.19159   6.31445   6.41605   6.46934
 Alpha virt. eigenvalues --    6.54724   6.59033   6.66078   6.67796   6.72910
 Alpha virt. eigenvalues --    6.85762   6.93448   6.95334   6.97058   7.05760
 Alpha virt. eigenvalues --    7.15788   7.24041   7.30526   7.30558   7.37159
 Alpha virt. eigenvalues --    7.40792   7.55180   7.67178   7.78072   7.93341
 Alpha virt. eigenvalues --    9.79996  12.64650  12.99226  13.54217  14.13371
          Condensed to atoms (all electrons):
               1          2          3          4          5          6
     1  C    4.305947   0.425859   0.742326  -0.036891   0.318458  -0.057307
     2  O    0.425859   7.736026  -0.090751   0.332476  -0.069974  -0.005279
     3  O    0.742326  -0.090751   7.802119   0.007954  -0.070590   0.005159
     4  H   -0.036891   0.332476   0.007954   0.434903   0.014335  -0.002213
     5  C    0.318458  -0.069974  -0.070590   0.014335   4.826710   0.309159
     6  N   -0.057307  -0.005279   0.005159  -0.002213   0.309159   6.362566
     7  H   -0.040979   0.001527   0.003200  -0.000636   0.419345  -0.024100
     8  H   -0.040979   0.001527   0.003200  -0.000636   0.419345  -0.024100
     9  H   -0.004819   0.004181   0.000035  -0.000278  -0.036835   0.394354
    10  H   -0.004819   0.004181   0.000035  -0.000278  -0.036835   0.394354
               7          8          9         10
     1  C   -0.040979  -0.040979  -0.004819  -0.004819
     2  O    0.001527   0.001527   0.004181   0.004181
     3  O    0.003200   0.003200   0.000035   0.000035
     4  H   -0.000636  -0.000636  -0.000278  -0.000278
     5  C    0.419345   0.419345  -0.036835  -0.036835
     6  N   -0.024100  -0.024100   0.394354   0.394354
     7  H    0.535439  -0.019227   0.006789  -0.006432
     8  H   -0.019227   0.535439  -0.006432   0.006789
     9  H    0.006789  -0.006432   0.541944  -0.045716
    10  H   -0.006432   0.006789  -0.045716   0.541944
 Mulliken charges:
               1
     1  C    0.393203
     2  O   -0.339772
     3  O   -0.402688
     4  H    0.251264
     5  C   -0.093117
     6  N   -0.352594
     7  H    0.125074
     8  H    0.125074
     9  H    0.146778
    10  H    0.146778
 Sum of Mulliken charges =  -0.00000
 Mulliken charges with hydrogens summed into heavy atoms:
               1
     1  C    0.393203
     2  O   -0.088508
     3  O   -0.402688
     5  C    0.157031
     6  N   -0.059038
 Electronic spatial extent (au):  <R**2>=            414.8784
 Charge=             -0.0000 electrons
 Dipole moment (field-independent basis, Debye):
    X=             -1.7890    Y=             -1.0022    Z=             -0.0000  Tot=              2.0506
 Quadrupole moment (field-independent basis, Debye-Ang):
   XX=            -27.6439   YY=            -36.6716   ZZ=            -27.0151
   XY=             -2.2213   XZ=              0.0000   YZ=              0.0000
 Traceless Quadrupole moment (field-independent basis, Debye-Ang):
   XX=              2.7996   YY=             -6.2281   ZZ=              3.4285
   XY=             -2.2213   XZ=              0.0000   YZ=              0.0000
 Octapole moment (field-independent basis, Debye-Ang**2):
  XXX=             -8.7342  YYY=              4.4066  ZZZ=              0.0000  XYY=            -19.1631
  XXY=              6.8325  XXZ=              0.0000  XZZ=             -0.9514  YZZ=             -2.1178
  YYZ=              0.0000  XYZ=              0.0000
 Hexadecapole moment (field-independent basis, Debye-Ang**3):
 XXXX=           -129.8832 YYYY=           -368.0628 ZZZZ=            -33.3502 XXXY=             -0.2661
 XXXZ=             -0.0000 YYYX=             22.5990 YYYZ=              0.0000 ZZZX=             -0.0000
 ZZZY=              0.0000 XXYY=            -70.6709 XXZZ=            -27.9839 YYZZ=            -52.4405
 XXYZ=             -0.0000 YYXZ=             -0.0000 ZZXY=              5.7424
 N-N= 1.800072551375D+02 E-N=-1.026419023523D+03  KE= 2.825827733618D+02
 Symmetry A'   KE= 2.697613116640D+02
 Symmetry A"   KE= 1.282146169777D+01
 Leave Link  601 at Sat Oct 15 15:08:41 2016, MaxMem= 13421772800 cpu:         2.2
 (Enter /share/pub/jeff/software/g09/g09/l9999.exe)
 1\1\GINC-R01N04\SP\RCCSD(T)-FC\CC-pVTZ\C2H5N1O2\JIANGZHONGMING\15-Oct-
 2016\0\\#P CCSD(T) cc-pVTZ\\start best geom PCCP paper\\0,1\C\O,1,1.34
 824\O,1,1.20339,2,122.72896\H,2,0.965621,1,106.37597,3,0.,0\C,1,1.5173
 6,3,123.80161,2,180.,0\N,5,1.44458,1,118.62999,3,180.,0\H,5,1.0899,1,1
 05.95621,3,56.19793,0\H,5,1.0899,1,105.95621,3,-56.19793,0\H,6,1.00975
 ,5,111.34671,1,59.71795,0\H,6,1.00975,5,111.34671,1,-59.71795,0\\Versi
 on=ES64L-G09RevE.01\State=1-A'\HF=-282.944907\MP2=-283.9540193\MP3=-28
 3.9656874\MP4D=-283.986089\MP4DQ=-283.9644753\MP4SDQ=-283.9755677\CCSD
 =-283.9726086\CCSD(T)=-284.0150318\RMSD=4.433e-09\PG=CS [SG(C2H1N1O2),
 X(H4)]\\@


 "A LITTLE BIT GOES A LONG WAY"
 R.S. MULLIKEN AS QUOTED BY K. RUEDENBERG
 Job cpu time:       0 days  1 hours 35 minutes 35.5 seconds.
 File lengths (MBytes):  RWF=   3596 Int=      0 D2E=      0 Chk=      8 Scr=      8
 Normal termination of Gaussian 09 at Sat Oct 15 15:08:41 2016.
