 Entering Gaussian System, Link 0=g09
 Initial command:
 /share/pub/jeff/software/g09/g09/l1.exe "/share/home/jiangzhongming/tmp/Gau-41838.inp" -scrdir="/share/home/jiangzhongming/tmp/"
 Entering Link 1 = /share/pub/jeff/software/g09/g09/l1.exe PID=     41839.
  
 Copyright (c) 1988,1990,1992,1993,1995,1998,2003,2009,2015,
            Gaussian, Inc.  All Rights Reserved.
  
 This is part of the Gaussian(R) 09 program.  It is based on
 the Gaussian(R) 03 system (copyright 2003, Gaussian, Inc.),
 the Gaussian(R) 98 system (copyright 1998, Gaussian, Inc.),
 the Gaussian(R) 94 system (copyright 1995, Gaussian, Inc.),
 the Gaussian 92(TM) system (copyright 1992, Gaussian, Inc.),
 the Gaussian 90(TM) system (copyright 1990, Gaussian, Inc.),
 the Gaussian 88(TM) system (copyright 1988, Gaussian, Inc.),
 the Gaussian 86(TM) system (copyright 1986, Carnegie Mellon
 University), and the Gaussian 82(TM) system (copyright 1983,
 Carnegie Mellon University). Gaussian is a federally registered
 trademark of Gaussian, Inc.
  
 This software contains proprietary and confidential information,
 including trade secrets, belonging to Gaussian, Inc.
  
 This software is provided under written license and may be
 used, copied, transmitted, or stored only in accord with that
 written license.
  
 The following legend is applicable only to US Government
 contracts under FAR:
  
                    RESTRICTED RIGHTS LEGEND
  
 Use, reproduction and disclosure by the US Government is
 subject to restrictions as set forth in subparagraphs (a)
 and (c) of the Commercial Computer Software - Restricted
 Rights clause in FAR 52.227-19.
  
 Gaussian, Inc.
 340 Quinnipiac St., Bldg. 40, Wallingford CT 06492
  
  
 ---------------------------------------------------------------
 Warning -- This program may not be used in any manner that
 competes with the business of Gaussian, Inc. or will provide
 assistance to any competitor of Gaussian, Inc.  The licensee
 of this program is prohibited from giving any competitor of
 Gaussian, Inc. access to this program.  By using this program,
 the user acknowledges that Gaussian, Inc. is engaged in the
 business of creating and licensing software in the field of
 computational chemistry and represents and warrants to the
 licensee that it is not a competitor of Gaussian, Inc. and that
 it will not use this program in any manner prohibited above.
 ---------------------------------------------------------------
  

 Cite this work as:
 Gaussian 09, Revision E.01,
 M. J. Frisch, G. W. Trucks, H. B. Schlegel, G. E. Scuseria, 
 M. A. Robb, J. R. Cheeseman, G. Scalmani, V. Barone, B. Mennucci, 
 G. A. Petersson, H. Nakatsuji, M. Caricato, X. Li, H. P. Hratchian, 
 A. F. Izmaylov, J. Bloino, G. Zheng, J. L. Sonnenberg, M. Hada, 
 M. Ehara, K. Toyota, R. Fukuda, J. Hasegawa, M. Ishida, T. Nakajima, 
 Y. Honda, O. Kitao, H. Nakai, T. Vreven, J. A. Montgomery, Jr., 
 J. E. Peralta, F. Ogliaro, M. Bearpark, J. J. Heyd, E. Brothers, 
 K. N. Kudin, V. N. Staroverov, T. Keith, R. Kobayashi, J. Normand, 
 K. Raghavachari, A. Rendell, J. C. Burant, S. S. Iyengar, J. Tomasi, 
 M. Cossi, N. Rega, J. M. Millam, M. Klene, J. E. Knox, J. B. Cross, 
 V. Bakken, C. Adamo, J. Jaramillo, R. Gomperts, R. E. Stratmann, 
 O. Yazyev, A. J. Austin, R. Cammi, C. Pomelli, J. W. Ochterski, 
 R. L. Martin, K. Morokuma, V. G. Zakrzewski, G. A. Voth, 
 P. Salvador, J. J. Dannenberg, S. Dapprich, A. D. Daniels, 
 O. Farkas, J. B. Foresman, J. V. Ortiz, J. Cioslowski, 
 and D. J. Fox, Gaussian, Inc., Wallingford CT, 2013.
 
 ******************************************
 Gaussian 09:  ES64L-G09RevE.01 30-Nov-2015
                15-Oct-2016 
 ******************************************
 %chk=ttc_Best_geom_CCSDT_VTZ.chk
 %nprocshared=16
 Will use up to   16 processors via shared memory.
 %mem=100GB
 ------------------
 #P CCSD(T) cc-pVTZ
 ------------------
 1/38=1/1;
 2/12=2,17=6,18=5,40=1/2;
 3/5=16,6=1,11=9,16=1,25=1,30=1/1,2,3;
 4//1;
 5/5=2,38=5/2;
 8/6=4,9=120000,10=1/1,4;
 9/5=7,14=2/13;
 6/7=2,8=2,9=2,10=2/1;
 99/5=1,9=1/99;
 Leave Link    1 at Sat Oct 15 15:08:43 2016, MaxMem= 13421772800 cpu:         1.9
 (Enter /share/pub/jeff/software/g09/g09/l101.exe)
 --------------------------
 start best geom PCCP paper
 --------------------------
 Symbolic Z-matrix:
 Charge =  0 Multiplicity = 1
 C
 O                    1    B1
 O                    1    B2       2    A1
 H                    2    B3       1    A2       3    D1       0
 C                    1    B4       3    A3       2    D2       0
 N                    5    B5       1    A4       3    D3       0
 H                    5    B6       1    A5       3    D4m      0
 H                    5    B6       1    A5       3    D4       0
 H                    6    B8       5    A7       1    D6m      0
 H                    6    B8       5    A7       1    D6       0
       Variables:
  B1                    1.35431                  
  B2                    1.19608                  
  A1                  120.26189                  
  B3                    0.96191                  
  A2                  110.63119                  
  B4                    1.52269                  
  A3                  124.62553                  
  B5                    1.44073                  
  A4                  115.35662                  
  B6                    1.09261                  
  A5                  107.80356                  
  D4m                -122.62433                  
  D4                  122.62433                  
  B8                    1.01113                  
  A7                  110.22995                  
  D6m                 -58.35404                  
  D6                   58.35404                  
  D1                  180.                       
  D2                  180.                       
  D3                    0.                       
 
 NAtoms=     10 NQM=       10 NQMF=       0 NMMI=      0 NMMIF=      0
                NMic=       0 NMicF=      0.
                    Isotopes and Nuclear Properties:
 (Nuclear quadrupole moments (NQMom) in fm**2, nuclear magnetic moments (NMagM)
  in nuclear magnetons)

  Atom         1           2           3           4           5           6           7           8           9          10
 IAtWgt=          12          16          16           1          12          14           1           1           1           1
 AtmWgt=  12.0000000  15.9949146  15.9949146   1.0078250  12.0000000  14.0030740   1.0078250   1.0078250   1.0078250   1.0078250
 NucSpn=           0           0           0           1           0           2           1           1           1           1
 AtZEff=   0.0000000   0.0000000   0.0000000   0.0000000   0.0000000   0.0000000   0.0000000   0.0000000   0.0000000   0.0000000
 NQMom=    0.0000000   0.0000000   0.0000000   0.0000000   0.0000000   2.0440000   0.0000000   0.0000000   0.0000000   0.0000000
 NMagM=    0.0000000   0.0000000   0.0000000   2.7928460   0.0000000   0.4037610   2.7928460   2.7928460   2.7928460   2.7928460
 AtZNuc=   6.0000000   8.0000000   8.0000000   1.0000000   6.0000000   7.0000000   1.0000000   1.0000000   1.0000000   1.0000000
 Leave Link  101 at Sat Oct 15 15:08:43 2016, MaxMem= 13421772800 cpu:         1.1
 (Enter /share/pub/jeff/software/g09/g09/l202.exe)
                          Input orientation:                          
 ---------------------------------------------------------------------
 Center     Atomic      Atomic             Coordinates (Angstroms)
 Number     Number       Type             X           Y           Z
 ---------------------------------------------------------------------
      1          6           0        0.000000    0.000000    0.000000
      2          8           0        0.000000    0.000000    1.354310
      3          8           0        1.033091    0.000000   -0.602768
      4          1           0       -0.900217    0.000000    1.693239
      5          6           0       -1.378759    0.000000   -0.646227
      6          7           0       -1.384895    0.000000   -2.086944
      7          1           0       -1.919274    0.876153   -0.280172
      8          1           0       -1.919274   -0.876153   -0.280172
      9          1           0       -0.888606    0.807682   -2.438698
     10          1           0       -0.888606   -0.807682   -2.438698
 ---------------------------------------------------------------------
                    Distance matrix (angstroms):
                    1          2          3          4          5
     1  C    0.000000
     2  O    1.354310   0.000000
     3  O    1.196080   2.213015   0.000000
     4  H    1.917667   0.961906   3.001554   0.000000
     5  C    1.522690   2.429634   2.412242   2.387907   0.000000
     6  N    2.504650   3.709469   2.837153   3.811128   1.440730
     7  H    2.128322   2.668855   3.096477   2.387566   1.092610
     8  H    2.128322   2.668855   3.096477   2.387566   1.092610
     9  H    2.718312   3.978553   2.777753   4.210153   2.026216
    10  H    2.718312   3.978553   2.777753   4.210153   2.026216
                    6          7          8          9         10
     6  N    0.000000
     7  H    2.077890   0.000000
     8  H    2.077890   1.752306   0.000000
     9  H    1.011130   2.392948   2.925203   0.000000
    10  H    1.011130   2.925203   2.392948   1.615364   0.000000
 Stoichiometry    C2H5NO2
 Framework group  CS[SG(C2HNO2),X(H4)]
 Deg. of freedom    15
 Full point group                 CS      NOp   2
 Largest Abelian subgroup         CS      NOp   2
 Largest concise Abelian subgroup CS      NOp   2
                         Standard orientation:                         
 ---------------------------------------------------------------------
 Center     Atomic      Atomic             Coordinates (Angstroms)
 Number     Number       Type             X           Y           Z
 ---------------------------------------------------------------------
      1          6           0        0.000000    0.573396    0.000000
      2          8           0        0.957640    1.531040    0.000000
      3          8           0       -1.156728    0.877678    0.000000
      4          1           0        1.833849    1.134152    0.000000
      5          6           0        0.517981   -0.858483    0.000000
      6          7           0       -0.496418   -1.881566    0.000000
      7          1           0        1.159024   -0.981844    0.876153
      8          1           0        1.159024   -0.981844   -0.876153
      9          1           0       -1.096075   -1.779366    0.807682
     10          1           0       -1.096075   -1.779366   -0.807682
 ---------------------------------------------------------------------
 Rotational constants (GHZ):     10.2385391      3.9139579      2.9253533
 Leave Link  202 at Sat Oct 15 15:08:43 2016, MaxMem= 13421772800 cpu:         0.4
 (Enter /share/pub/jeff/software/g09/g09/l301.exe)
 Standard basis: CC-pVTZ (5D, 7F)
 Ernie: Thresh=  0.10000D-02 Tol=  0.10000D-05 Strict=F.
 Ernie:  15 primitive shells out of 170 were deleted.
 There are   161 symmetry adapted cartesian basis functions of A'  symmetry.
 There are    89 symmetry adapted cartesian basis functions of A"  symmetry.
 There are   138 symmetry adapted basis functions of A'  symmetry.
 There are    82 symmetry adapted basis functions of A"  symmetry.
   220 basis functions,   345 primitive gaussians,   250 cartesian basis functions
    20 alpha electrons       20 beta electrons
       nuclear repulsion energy       179.6626212364 Hartrees.
 IExCor=    0 DFT=F Ex=HF Corr=None ExCW=0 ScaHFX=  1.000000
 ScaDFX=  1.000000  1.000000  1.000000  1.000000 ScalE2=  1.000000  1.000000
 IRadAn=      0 IRanWt=     -1 IRanGd=            0 ICorTp=0 IEmpDi=  4
 NAtoms=   10 NActive=   10 NUniq=    8 SFac= 1.56D+00 NAtFMM=   60 NAOKFM=F Big=F
 Integral buffers will be    131072 words long.
 Raffenetti 1 integral format.
 Two-electron integral symmetry is turned on.
 Leave Link  301 at Sat Oct 15 15:08:43 2016, MaxMem= 13421772800 cpu:         1.4
 (Enter /share/pub/jeff/software/g09/g09/l302.exe)
 NPDir=0 NMtPBC=     1 NCelOv=     1 NCel=       1 NClECP=     1 NCelD=      1
         NCelK=      1 NCelE2=     1 NClLst=     1 CellRange=     0.0.
 One-electron integrals computed using PRISM.
 One-electron integral symmetry used in STVInt
 NBasis=   220 RedAO= T EigKep=  6.44D-04  NBF=   138    82
 NBsUse=   220 1.00D-06 EigRej= -1.00D+00 NBFU=   138    82
 Leave Link  302 at Sat Oct 15 15:08:43 2016, MaxMem= 13421772800 cpu:         3.1
 (Enter /share/pub/jeff/software/g09/g09/l303.exe)
 DipDrv:  MaxL=1.
 Leave Link  303 at Sat Oct 15 15:08:43 2016, MaxMem= 13421772800 cpu:         0.4
 (Enter /share/pub/jeff/software/g09/g09/l401.exe)
 ExpMin= 1.03D-01 ExpMax= 1.53D+04 ExpMxC= 5.22D+02 IAcc=1 IRadAn=         1 AccDes= 0.00D+00
 Harris functional with IExCor=  205 and IRadAn=       1 diagonalized for initial guess.
 HarFok:  IExCor=  205 AccDes= 0.00D+00 IRadAn=         1 IDoV= 1 UseB2=F ITyADJ=14
 ICtDFT=  3500011 ScaDFX=  1.000000  1.000000  1.000000  1.000000
 FoFCou: FMM=F IPFlag=           0 FMFlag=      100000 FMFlg1=           0
         NFxFlg=           0 DoJE=T BraDBF=F KetDBF=T FulRan=T
         wScrn=  0.000000 ICntrl=     500 IOpCl=  0 I1Cent=   200000004 NGrid=           0
         NMat0=    1 NMatS0=      1 NMatT0=    0 NMatD0=    1 NMtDS0=    0 NMtDT0=    0
 Petite list used in FoFCou.
 Harris En= -283.223792604063    
 JPrj=0 DoOrth=F DoCkMO=F.
 Initial guess orbital symmetries:
       Occupied  (A') (A') (A') (A') (A') (A') (A') (A') (A') (A')
                 (A') (A") (A') (A') (A") (A') (A") (A") (A') (A')
       Virtual   (A") (A') (A') (A") (A') (A") (A') (A') (A') (A')
                 (A") (A') (A') (A") (A') (A') (A") (A') (A") (A')
                 (A') (A') (A') (A") (A') (A") (A') (A') (A") (A')
                 (A") (A') (A') (A') (A") (A") (A") (A') (A') (A')
                 (A") (A') (A') (A") (A") (A') (A") (A") (A') (A')
                 (A') (A") (A') (A') (A") (A') (A') (A') (A') (A")
                 (A") (A') (A') (A') (A") (A') (A") (A') (A") (A')
                 (A") (A') (A') (A') (A") (A') (A") (A') (A') (A')
                 (A") (A') (A') (A") (A') (A') (A") (A') (A') (A")
                 (A") (A') (A") (A') (A") (A") (A') (A') (A') (A")
                 (A') (A') (A") (A") (A") (A') (A") (A') (A") (A")
                 (A') (A') (A") (A") (A') (A') (A") (A') (A') (A")
                 (A') (A') (A") (A') (A') (A") (A") (A') (A") (A")
                 (A') (A') (A') (A") (A') (A") (A') (A') (A") (A')
                 (A") (A') (A') (A") (A') (A') (A') (A") (A') (A")
                 (A') (A") (A') (A') (A') (A") (A') (A") (A') (A")
                 (A') (A') (A") (A') (A') (A') (A') (A") (A") (A')
                 (A") (A') (A") (A') (A') (A") (A") (A') (A') (A")
                 (A") (A') (A") (A') (A") (A') (A") (A") (A') (A")
                 (A') (A') (A') (A') (A') (A') (A') (A') (A') (A')
 The electronic state of the initial guess is 1-A'.
 Leave Link  401 at Sat Oct 15 15:08:43 2016, MaxMem= 13421772800 cpu:         3.7
 (Enter /share/pub/jeff/software/g09/g09/l502.exe)
 Closed shell SCF:
 Using DIIS extrapolation, IDIIS=  1040.
 Integral symmetry usage will be decided dynamically.
 Keep R1 ints in memory in symmetry-blocked form, NReq=444223844.
 IVT=      212174 IEndB=      212174 NGot= 13421772800 MDV= 13273049382
 LenX= 13273049382 LenY= 13272986441
 Requested convergence on RMS density matrix=1.00D-08 within 128 cycles.
 Requested convergence on MAX density matrix=1.00D-06.
 Requested convergence on             energy=1.00D-06.
 No special actions if energy rises.
 FoFCou: FMM=F IPFlag=           0 FMFlag=           0 FMFlg1=           0
         NFxFlg=           0 DoJE=F BraDBF=F KetDBF=F FulRan=T
         wScrn=  0.000000 ICntrl=     600 IOpCl=  0 I1Cent=           0 NGrid=           0
         NMat0=    1 NMatS0=  24310 NMatT0=    0 NMatD0=    1 NMtDS0=    0 NMtDT0=    0
 Petite list used in FoFCou.

 Cycle   1  Pass 1  IDiag  1:
 E= -282.693678470904    
 DIIS: error= 3.71D-02 at cycle   1 NSaved=   1.
 NSaved= 1 IEnMin= 1 EnMin= -282.693678470904     IErMin= 1 ErrMin= 3.71D-02
 ErrMax= 3.71D-02  0.00D+00 EMaxC= 1.00D-01 BMatC= 5.83D-01 BMatP= 5.83D-01
 IDIUse=3 WtCom= 6.29D-01 WtEn= 3.71D-01
 Coeff-Com:  0.100D+01
 Coeff-En:   0.100D+01
 Coeff:      0.100D+01
 Gap=     0.450 Goal=   None    Shift=    0.000
 GapD=    0.450 DampG=2.000 DampE=0.500 DampFc=1.0000 IDamp=-1.
 RMSDP=2.11D-03 MaxDP=8.00D-02              OVMax= 1.29D-01

 Cycle   2  Pass 1  IDiag  1:
 E= -282.880903393285     Delta-E=       -0.187224922381 Rises=F Damp=F
 DIIS: error= 1.75D-02 at cycle   2 NSaved=   2.
 NSaved= 2 IEnMin= 2 EnMin= -282.880903393285     IErMin= 2 ErrMin= 1.75D-02
 ErrMax= 1.75D-02  0.00D+00 EMaxC= 1.00D-01 BMatC= 8.59D-02 BMatP= 5.83D-01
 IDIUse=3 WtCom= 8.25D-01 WtEn= 1.75D-01
 Coeff-Com:  0.212D+00 0.788D+00
 Coeff-En:   0.000D+00 0.100D+01
 Coeff:      0.175D+00 0.825D+00
 Gap=     0.560 Goal=   None    Shift=    0.000
 RMSDP=1.16D-03 MaxDP=5.88D-02 DE=-1.87D-01 OVMax= 5.59D-02

 Cycle   3  Pass 1  IDiag  1:
 E= -282.930489577647     Delta-E=       -0.049586184362 Rises=F Damp=F
 DIIS: error= 1.06D-02 at cycle   3 NSaved=   3.
 NSaved= 3 IEnMin= 3 EnMin= -282.930489577647     IErMin= 3 ErrMin= 1.06D-02
 ErrMax= 1.06D-02  0.00D+00 EMaxC= 1.00D-01 BMatC= 1.25D-02 BMatP= 8.59D-02
 IDIUse=3 WtCom= 8.94D-01 WtEn= 1.06D-01
 Coeff-Com: -0.226D-01 0.248D+00 0.774D+00
 Coeff-En:   0.000D+00 0.000D+00 0.100D+01
 Coeff:     -0.202D-01 0.222D+00 0.798D+00
 Gap=     0.532 Goal=   None    Shift=    0.000
 RMSDP=2.39D-04 MaxDP=9.55D-03 DE=-4.96D-02 OVMax= 3.00D-02

 Cycle   4  Pass 1  IDiag  1:
 E= -282.938307109006     Delta-E=       -0.007817531359 Rises=F Damp=F
 DIIS: error= 1.51D-03 at cycle   4 NSaved=   4.
 NSaved= 4 IEnMin= 4 EnMin= -282.938307109006     IErMin= 4 ErrMin= 1.51D-03
 ErrMax= 1.51D-03  0.00D+00 EMaxC= 1.00D-01 BMatC= 5.56D-04 BMatP= 1.25D-02
 IDIUse=3 WtCom= 9.85D-01 WtEn= 1.51D-02
 Coeff-Com: -0.117D-01 0.497D-01 0.264D+00 0.698D+00
 Coeff-En:   0.000D+00 0.000D+00 0.000D+00 0.100D+01
 Coeff:     -0.115D-01 0.490D-01 0.260D+00 0.703D+00
 Gap=     0.529 Goal=   None    Shift=    0.000
 RMSDP=7.59D-05 MaxDP=3.01D-03 DE=-7.82D-03 OVMax= 5.55D-03

 Cycle   5  Pass 1  IDiag  1:
 E= -282.938752717992     Delta-E=       -0.000445608986 Rises=F Damp=F
 DIIS: error= 6.58D-04 at cycle   5 NSaved=   5.
 NSaved= 5 IEnMin= 5 EnMin= -282.938752717992     IErMin= 5 ErrMin= 6.58D-04
 ErrMax= 6.58D-04  0.00D+00 EMaxC= 1.00D-01 BMatC= 2.71D-05 BMatP= 5.56D-04
 IDIUse=3 WtCom= 9.93D-01 WtEn= 6.58D-03
 Coeff-Com:  0.232D-02-0.247D-01-0.839D-01-0.708D-03 0.111D+01
 Coeff-En:   0.000D+00 0.000D+00 0.000D+00 0.000D+00 0.100D+01
 Coeff:      0.230D-02-0.245D-01-0.833D-01-0.703D-03 0.111D+01
 Gap=     0.530 Goal=   None    Shift=    0.000
 RMSDP=4.07D-05 MaxDP=1.64D-03 DE=-4.46D-04 OVMax= 3.97D-03

 Cycle   6  Pass 1  IDiag  1:
 E= -282.938807421618     Delta-E=       -0.000054703626 Rises=F Damp=F
 DIIS: error= 1.33D-04 at cycle   6 NSaved=   6.
 NSaved= 6 IEnMin= 6 EnMin= -282.938807421618     IErMin= 6 ErrMin= 1.33D-04
 ErrMax= 1.33D-04  0.00D+00 EMaxC= 1.00D-01 BMatC= 4.30D-06 BMatP= 2.71D-05
 IDIUse=3 WtCom= 9.99D-01 WtEn= 1.33D-03
 Coeff-Com:  0.159D-02-0.106D-01-0.432D-01-0.795D-01 0.226D+00 0.905D+00
 Coeff-En:   0.000D+00 0.000D+00 0.000D+00 0.000D+00 0.000D+00 0.100D+01
 Coeff:      0.158D-02-0.106D-01-0.431D-01-0.794D-01 0.226D+00 0.905D+00
 Gap=     0.530 Goal=   None    Shift=    0.000
 RMSDP=1.57D-05 MaxDP=6.90D-04 DE=-5.47D-05 OVMax= 1.10D-03

 Cycle   7  Pass 1  IDiag  1:
 E= -282.938815000700     Delta-E=       -0.000007579082 Rises=F Damp=F
 DIIS: error= 6.91D-05 at cycle   7 NSaved=   7.
 NSaved= 7 IEnMin= 7 EnMin= -282.938815000700     IErMin= 7 ErrMin= 6.91D-05
 ErrMax= 6.91D-05  0.00D+00 EMaxC= 1.00D-01 BMatC= 5.56D-07 BMatP= 4.30D-06
 IDIUse=1 WtCom= 1.00D+00 WtEn= 0.00D+00
 Coeff-Com: -0.263D-03 0.302D-02 0.124D-01-0.790D-02-0.134D+00-0.194D-01
 Coeff-Com:  0.115D+01
 Coeff:     -0.263D-03 0.302D-02 0.124D-01-0.790D-02-0.134D+00-0.194D-01
 Coeff:      0.115D+01
 Gap=     0.530 Goal=   None    Shift=    0.000
 RMSDP=6.02D-06 MaxDP=1.90D-04 DE=-7.58D-06 OVMax= 7.65D-04

 Cycle   8  Pass 1  IDiag  1:
 E= -282.938816440991     Delta-E=       -0.000001440291 Rises=F Damp=F
 DIIS: error= 1.85D-05 at cycle   8 NSaved=   8.
 NSaved= 8 IEnMin= 8 EnMin= -282.938816440991     IErMin= 8 ErrMin= 1.85D-05
 ErrMax= 1.85D-05  0.00D+00 EMaxC= 1.00D-01 BMatC= 7.59D-08 BMatP= 5.56D-07
 IDIUse=1 WtCom= 1.00D+00 WtEn= 0.00D+00
 Coeff-Com: -0.197D-03 0.133D-02 0.547D-02 0.632D-02-0.179D-01-0.114D+00
 Coeff-Com: -0.618D-01 0.118D+01
 Coeff:     -0.197D-03 0.133D-02 0.547D-02 0.632D-02-0.179D-01-0.114D+00
 Coeff:     -0.618D-01 0.118D+01
 Gap=     0.530 Goal=   None    Shift=    0.000
 RMSDP=2.26D-06 MaxDP=6.86D-05 DE=-1.44D-06 OVMax= 2.93D-04

 Cycle   9  Pass 1  IDiag  1:
 E= -282.938816640514     Delta-E=       -0.000000199523 Rises=F Damp=F
 DIIS: error= 7.29D-06 at cycle   9 NSaved=   9.
 NSaved= 9 IEnMin= 9 EnMin= -282.938816640514     IErMin= 9 ErrMin= 7.29D-06
 ErrMax= 7.29D-06  0.00D+00 EMaxC= 1.00D-01 BMatC= 1.01D-08 BMatP= 7.59D-08
 IDIUse=1 WtCom= 1.00D+00 WtEn= 0.00D+00
 Coeff-Com: -0.818D-05-0.118D-03-0.495D-03 0.159D-02 0.164D-01-0.212D-01
 Coeff-Com: -0.167D+00 0.232D+00 0.939D+00
 Coeff:     -0.818D-05-0.118D-03-0.495D-03 0.159D-02 0.164D-01-0.212D-01
 Coeff:     -0.167D+00 0.232D+00 0.939D+00
 Gap=     0.530 Goal=   None    Shift=    0.000
 RMSDP=7.55D-07 MaxDP=2.39D-05 DE=-2.00D-07 OVMax= 8.81D-05

 Cycle  10  Pass 1  IDiag  1:
 E= -282.938816660997     Delta-E=       -0.000000020484 Rises=F Damp=F
 DIIS: error= 2.80D-06 at cycle  10 NSaved=  10.
 NSaved=10 IEnMin=10 EnMin= -282.938816660997     IErMin=10 ErrMin= 2.80D-06
 ErrMax= 2.80D-06  0.00D+00 EMaxC= 1.00D-01 BMatC= 8.70D-10 BMatP= 1.01D-08
 IDIUse=1 WtCom= 1.00D+00 WtEn= 0.00D+00
 Coeff-Com:  0.252D-04-0.173D-03-0.679D-03-0.123D-02 0.239D-02 0.146D-01
 Coeff-Com:  0.176D-01-0.165D+00-0.465D-01 0.118D+01
 Coeff:      0.252D-04-0.173D-03-0.679D-03-0.123D-02 0.239D-02 0.146D-01
 Coeff:      0.176D-01-0.165D+00-0.465D-01 0.118D+01
 Gap=     0.530 Goal=   None    Shift=    0.000
 RMSDP=2.80D-07 MaxDP=8.00D-06 DE=-2.05D-08 OVMax= 2.52D-05

 Cycle  11  Pass 1  IDiag  1:
 E= -282.938816663136     Delta-E=       -0.000000002139 Rises=F Damp=F
 DIIS: error= 6.23D-07 at cycle  11 NSaved=  11.
 NSaved=11 IEnMin=11 EnMin= -282.938816663136     IErMin=11 ErrMin= 6.23D-07
 ErrMax= 6.23D-07  0.00D+00 EMaxC= 1.00D-01 BMatC= 5.47D-11 BMatP= 8.70D-10
 IDIUse=1 WtCom= 1.00D+00 WtEn= 0.00D+00
 Coeff-Com:  0.695D-06 0.542D-05 0.494D-04-0.103D-03-0.876D-03 0.438D-03
 Coeff-Com:  0.972D-02-0.648D-02-0.610D-01-0.656D-01 0.112D+01
 Coeff:      0.695D-06 0.542D-05 0.494D-04-0.103D-03-0.876D-03 0.438D-03
 Coeff:      0.972D-02-0.648D-02-0.610D-01-0.656D-01 0.112D+01
 Gap=     0.530 Goal=   None    Shift=    0.000
 RMSDP=6.28D-08 MaxDP=2.07D-06 DE=-2.14D-09 OVMax= 3.93D-06

 Cycle  12  Pass 1  IDiag  1:
 E= -282.938816663256     Delta-E=       -0.000000000119 Rises=F Damp=F
 DIIS: error= 1.49D-07 at cycle  12 NSaved=  12.
 NSaved=12 IEnMin=12 EnMin= -282.938816663256     IErMin=12 ErrMin= 1.49D-07
 ErrMax= 1.49D-07  0.00D+00 EMaxC= 1.00D-01 BMatC= 3.70D-12 BMatP= 5.47D-11
 IDIUse=1 WtCom= 1.00D+00 WtEn= 0.00D+00
 Coeff-Com: -0.198D-05 0.140D-04 0.588D-04 0.891D-04-0.221D-03-0.118D-02
 Coeff-Com: -0.140D-02 0.143D-01 0.195D-02-0.998D-01 0.395D-01 0.105D+01
 Coeff:     -0.198D-05 0.140D-04 0.588D-04 0.891D-04-0.221D-03-0.118D-02
 Coeff:     -0.140D-02 0.143D-01 0.195D-02-0.998D-01 0.395D-01 0.105D+01
 Gap=     0.530 Goal=   None    Shift=    0.000
 RMSDP=1.48D-08 MaxDP=4.49D-07 DE=-1.19D-10 OVMax= 1.03D-06

 Cycle  13  Pass 1  IDiag  1:
 E= -282.938816663254     Delta-E=        0.000000000002 Rises=F Damp=F
 DIIS: error= 4.80D-08 at cycle  13 NSaved=  13.
 NSaved=13 IEnMin=12 EnMin= -282.938816663256     IErMin=13 ErrMin= 4.80D-08
 ErrMax= 4.80D-08  0.00D+00 EMaxC= 1.00D-01 BMatC= 3.04D-13 BMatP= 3.70D-12
 IDIUse=1 WtCom= 1.00D+00 WtEn= 0.00D+00
 Coeff-Com:  0.976D-07-0.159D-05-0.935D-05-0.299D-06 0.103D-03 0.795D-04
 Coeff-Com: -0.932D-03-0.201D-03 0.550D-02 0.105D-01-0.104D+00-0.201D-01
 Coeff-Com:  0.111D+01
 Coeff:      0.976D-07-0.159D-05-0.935D-05-0.299D-06 0.103D-03 0.795D-04
 Coeff:     -0.932D-03-0.201D-03 0.550D-02 0.105D-01-0.104D+00-0.201D-01
 Coeff:      0.111D+01
 Gap=     0.530 Goal=   None    Shift=    0.000
 RMSDP=4.32D-09 MaxDP=1.17D-07 DE= 1.82D-12 OVMax= 3.04D-07

 SCF Done:  E(RHF) =  -282.938816663     A.U. after   13 cycles
            NFock= 13  Conv=0.43D-08     -V/T= 2.0013
 KE= 2.825761669015D+02 PE=-1.025626435984D+03 EE= 2.804488311829D+02
 Leave Link  502 at Sat Oct 15 15:08:48 2016, MaxMem= 13421772800 cpu:        75.2
 (Enter /share/pub/jeff/software/g09/g09/l801.exe)
 Windowed orbitals will be sorted by symmetry type.
 ExpMin= 1.03D-01 ExpMax= 1.53D+04 ExpMxC= 5.22D+02 IAcc=3 IRadAn=         5 AccDes= 0.00D+00
 HarFok:  IExCor=  205 AccDes= 0.00D+00 IRadAn=         5 IDoV=-2 UseB2=F ITyADJ=14
 ICtDFT= 12500011 ScaDFX=  1.000000  1.000000  1.000000  1.000000
 Largest valence mixing into a core orbital is  2.05D-04
 Largest core mixing into a valence orbital is  3.06D-05
 Range of M.O.s used for correlation:     6   220
 NBasis=   220 NAE=    20 NBE=    20 NFC=     5 NFV=     0
 NROrb=    215 NOA=    15 NOB=    15 NVA=   200 NVB=   200

 **** Warning!!: The largest alpha MO coefficient is  0.14695826D+02

 Leave Link  801 at Sat Oct 15 15:08:49 2016, MaxMem= 13421772800 cpu:         1.1
 (Enter /share/pub/jeff/software/g09/g09/l804.exe)
 Closed-shell transformation, MDV= 13421772800 ITran=4 ISComp=2.
 Semi-Direct transformation.
 ModeAB=           4 MOrb=            15 LenV=   13420464819
 LASXX=     35746231 LTotXX=    35746231 LenRXX=    72023863
 LTotAB=    36277632 MaxLAS=    79609125 LenRXY=           0
 NonZer=   107770094 LenScr=   162004992 LnRSAI=    79609125
 LnScr1=   119537664 LExtra=           0 Total=    433175644
 MaxDsk=          -1 SrtSym=           T ITran=            4
 DoSDTr:  NPSUse= 16
 JobTyp=0 Pass  1:  I=   1 to  15.
 (rs|ai) integrals will be sorted in core.
 Complete sort for first half transformation.
 First half transformation complete.
 Begin second half transformation for I=  10.
 Complete sort for second half transformation.
 Second half transformation complete.
 Spin components of T(2) and E(2):
     alpha-alpha T2 =       0.3541274222D-01 E2=     -0.1268978571D+00
     alpha-beta  T2 =       0.1973640470D+00 E2=     -0.7559190885D+00
     beta-beta   T2 =       0.3541274222D-01 E2=     -0.1268978571D+00
 ANorm=    0.1126139215D+01
 E2 =    -0.1009714803D+01 EUMP2 =    -0.28394853146591D+03
 Leave Link  804 at Sat Oct 15 15:08:56 2016, MaxMem= 13421772800 cpu:       114.9
 (Enter /share/pub/jeff/software/g09/g09/l913.exe)
 CIDS:  MDV= 13421772800.
 Frozen-core window:  NFC=   5 NFV=   0.
 IFCWin=0 IBDFC=1 NFBD=     0     0 NFCmp=     0     0 NFFFC=     0     0
 Using DD3R+UMP44R for 1st iteration, S=T.
 Using DD4RQ for 2nd and later iterations.
 Keep R2 and R3 ints in memory in symmetry-blocked form, NReq=445433445.
 FoFCou: FMM=F IPFlag=           0 FMFlag=           0 FMFlg1=           0
         NFxFlg=           0 DoJE=F BraDBF=F KetDBF=F FulRan=T
         wScrn=  0.000000 ICntrl=     600 IOpCl=  0 I1Cent=           0 NGrid=           0
         NMat0=    1 NMatS0=  24310 NMatT0=    0 NMatD0=    1 NMtDS0=    0 NMtDT0=    0
 Petite list used in FoFCou.
 CCSD(T)
 =======
 Iterations=  50 Convergence= 0.100D-06
 Iteration Nr.   1
 **********************
 DD1Dir will call FoFMem   1 times, MxPair=       240
 NAB=   120 NAA=     0 NBB=     0.
 MP4(R+Q)=  0.21798135D-01
 Maximum subspace dimension=  5
 Norm of the A-vectors is  1.4009080D+00 conv= 1.00D-05.
 RLE energy=       -0.9996035642
 E3=       -0.12135003D-01        EUMP3=      -0.28396066647D+03
 E4(DQ)=    0.14713792D-02        UMP4(DQ)=   -0.28395919509D+03
 E4(SDQ)=  -0.95955200D-02        UMP4(SDQ)=  -0.28397026199D+03
 VARIATIONAL ENERGIES WITH THE FIRST-ORDER WAVEFUNCTION:
 DE(Corr)= -0.99950158     E(Corr)=     -283.93831825    
 NORM(A)=   0.11264623D+01
 Iteration Nr.   2
 **********************
 DD1Dir will call FoFMem   1 times, MxPair=       240
 NAB=   120 NAA=     0 NBB=     0.
 Norm of the A-vectors is  5.1550783D-01 conv= 1.00D-05.
 RLE energy=       -1.0267408681
 DE(Corr)=  -1.0262776     E(CORR)=     -283.96509430     Delta=-2.68D-02
 NORM(A)=   0.11356580D+01
 Iteration Nr.   3
 **********************
 DD1Dir will call FoFMem   1 times, MxPair=       240
 NAB=   120 NAA=     0 NBB=     0.
 Norm of the A-vectors is  1.4168250D-01 conv= 1.00D-05.
 RLE energy=       -1.0282252066
 DE(Corr)=  -1.0259460     E(CORR)=     -283.96476271     Delta= 3.32D-04
 NORM(A)=   0.11380973D+01
 Iteration Nr.   4
 **********************
 DD1Dir will call FoFMem   1 times, MxPair=       240
 NAB=   120 NAA=     0 NBB=     0.
 Norm of the A-vectors is  5.7503492D-02 conv= 1.00D-05.
 RLE energy=       -1.0283940371
 DE(Corr)=  -1.0282154     E(CORR)=     -283.96703203     Delta=-2.27D-03
 NORM(A)=   0.11388160D+01
 Iteration Nr.   5
 **********************
 DD1Dir will call FoFMem   1 times, MxPair=       240
 NAB=   120 NAA=     0 NBB=     0.
 Norm of the A-vectors is  1.2950992D-02 conv= 1.00D-05.
 RLE energy=       -1.0285012317
 DE(Corr)=  -1.0284593     E(CORR)=     -283.96727592     Delta=-2.44D-04
 NORM(A)=   0.11390399D+01
 Iteration Nr.   6
 **********************
 DD1Dir will call FoFMem   1 times, MxPair=       240
 NAB=   120 NAA=     0 NBB=     0.
 Norm of the A-vectors is  6.7488498D-03 conv= 1.00D-05.
 RLE energy=       -1.0284931800
 DE(Corr)=  -1.0284806     E(CORR)=     -283.96729728     Delta=-2.14D-05
 NORM(A)=   0.11390706D+01
 Iteration Nr.   7
 **********************
 DD1Dir will call FoFMem   1 times, MxPair=       240
 NAB=   120 NAA=     0 NBB=     0.
 Norm of the A-vectors is  2.3971309D-03 conv= 1.00D-05.
 RLE energy=       -1.0284681228
 DE(Corr)=  -1.0284819     E(CORR)=     -283.96729860     Delta=-1.32D-06
 NORM(A)=   0.11390708D+01
 Iteration Nr.   8
 **********************
 DD1Dir will call FoFMem   1 times, MxPair=       240
 NAB=   120 NAA=     0 NBB=     0.
 Norm of the A-vectors is  9.1550784D-04 conv= 1.00D-05.
 RLE energy=       -1.0284802371
 DE(Corr)=  -1.0284812     E(CORR)=     -283.96729782     Delta= 7.82D-07
 NORM(A)=   0.11390755D+01
 Iteration Nr.   9
 **********************
 DD1Dir will call FoFMem   1 times, MxPair=       240
 NAB=   120 NAA=     0 NBB=     0.
 Norm of the A-vectors is  3.3131466D-04 conv= 1.00D-05.
 RLE energy=       -1.0284793665
 DE(Corr)=  -1.0284797     E(CORR)=     -283.96729639     Delta= 1.43D-06
 NORM(A)=   0.11390757D+01
 Iteration Nr.  10
 **********************
 DD1Dir will call FoFMem   1 times, MxPair=       240
 NAB=   120 NAA=     0 NBB=     0.
 Norm of the A-vectors is  1.5073220D-04 conv= 1.00D-05.
 RLE energy=       -1.0284805303
 DE(Corr)=  -1.0284806     E(CORR)=     -283.96729727     Delta=-8.80D-07
 NORM(A)=   0.11390763D+01
 Iteration Nr.  11
 **********************
 DD1Dir will call FoFMem   1 times, MxPair=       240
 NAB=   120 NAA=     0 NBB=     0.
 Norm of the A-vectors is  6.1767732D-05 conv= 1.00D-05.
 RLE energy=       -1.0284808661
 DE(Corr)=  -1.0284807     E(CORR)=     -283.96729736     Delta=-9.36D-08
 NORM(A)=   0.11390766D+01
 Iteration Nr.  12
 **********************
 DD1Dir will call FoFMem   1 times, MxPair=       240
 NAB=   120 NAA=     0 NBB=     0.
 Norm of the A-vectors is  2.8354649D-05 conv= 1.00D-05.
 RLE energy=       -1.0284810116
 DE(Corr)=  -1.0284810     E(CORR)=     -283.96729762     Delta=-2.56D-07
 NORM(A)=   0.11390768D+01
 Iteration Nr.  13
 **********************
 DD1Dir will call FoFMem   1 times, MxPair=       240
 NAB=   120 NAA=     0 NBB=     0.
 Norm of the A-vectors is  1.0044903D-05 conv= 1.00D-05.
 RLE energy=       -1.0284810169
 DE(Corr)=  -1.0284810     E(CORR)=     -283.96729766     Delta=-3.80D-08
 NORM(A)=   0.11390769D+01
 Iteration Nr.  14
 **********************
 DD1Dir will call FoFMem   1 times, MxPair=       240
 NAB=   120 NAA=     0 NBB=     0.
 Norm of the A-vectors is  4.9744879D-06 conv= 1.00D-05.
 RLE energy=       -1.0284810416
 DE(Corr)=  -1.0284810     E(CORR)=     -283.96729770     Delta=-4.39D-08
 NORM(A)=   0.11390769D+01
 CI/CC converged in   14 iterations to DelEn=-4.39D-08 Conv= 1.00D-07 ErrA1= 4.97D-06 Conv= 1.00D-05
 Largest amplitude= 3.44D-02
 IPart= 16 IA=   12   10.72% done.
 IPart=  6 IA=   23   20.84% done.
 IPart=  3 IA=   34   30.35% done.
 IPart= 15 IA=   46   40.03% done.
 IPart= 12 IA=   60   50.40% done.
 IPart= 12 IA=   75   60.43% done.
 IPart= 16 IA=   92   70.42% done.
 IPart=  1 IA=  112   80.32% done.
 IPart=  5 IA=  138   90.19% done.
 Time for triples=     3758.65 seconds.
 T4(CCSD)= -0.44549545D-01
 T5(CCSD)=  0.20286811D-02
 CCSD(T)= -0.28400981856D+03
 Discarding MO integrals.
 Leave Link  913 at Sat Oct 15 15:16:41 2016, MaxMem= 13421772800 cpu:      5646.7
 (Enter /share/pub/jeff/software/g09/g09/l601.exe)
 Copying SCF densities to generalized density rwf, IOpCl= 0 IROHF=0.

 **********************************************************************

            Population analysis using the SCF density.

 **********************************************************************

 Orbital symmetries:
       Occupied  (A') (A') (A') (A') (A') (A') (A') (A') (A') (A')
                 (A') (A") (A') (A") (A') (A') (A") (A") (A') (A')
       Virtual   (A') (A') (A") (A") (A') (A") (A') (A') (A') (A')
                 (A") (A') (A") (A') (A') (A") (A') (A") (A') (A')
                 (A') (A') (A') (A") (A") (A') (A') (A") (A') (A')
                 (A") (A') (A') (A') (A") (A") (A") (A') (A') (A')
                 (A") (A") (A') (A') (A") (A') (A") (A") (A') (A')
                 (A') (A") (A') (A') (A") (A') (A') (A') (A") (A')
                 (A") (A') (A') (A') (A") (A") (A') (A') (A") (A')
                 (A") (A') (A') (A") (A') (A') (A") (A') (A') (A")
                 (A') (A') (A') (A") (A') (A') (A") (A') (A') (A")
                 (A") (A') (A") (A") (A') (A') (A") (A') (A') (A")
                 (A') (A") (A") (A') (A") (A") (A') (A") (A') (A")
                 (A') (A') (A") (A") (A') (A") (A') (A") (A') (A')
                 (A') (A') (A') (A") (A") (A') (A") (A') (A") (A')
                 (A') (A") (A') (A') (A") (A') (A") (A') (A") (A")
                 (A") (A') (A') (A') (A') (A') (A") (A') (A') (A')
                 (A") (A') (A") (A') (A') (A") (A") (A') (A") (A')
                 (A') (A') (A") (A') (A') (A') (A') (A") (A") (A")
                 (A') (A') (A') (A") (A') (A") (A") (A') (A') (A")
                 (A") (A') (A") (A") (A') (A') (A") (A") (A') (A")
                 (A') (A') (A') (A') (A') (A') (A') (A') (A') (A')
 The electronic state is 1-A'.
 Alpha  occ. eigenvalues --  -20.61533 -20.54701 -15.55514 -11.38287 -11.28843
 Alpha  occ. eigenvalues --   -1.46533  -1.36989  -1.20409  -0.97379  -0.83202
 Alpha  occ. eigenvalues --   -0.73640  -0.70332  -0.66960  -0.62902  -0.60501
 Alpha  occ. eigenvalues --   -0.58749  -0.54538  -0.48517  -0.46682  -0.41419
 Alpha virt. eigenvalues --    0.11626   0.14667   0.15957   0.19012   0.19567
 Alpha virt. eigenvalues --    0.24357   0.31871   0.33431   0.35182   0.40894
 Alpha virt. eigenvalues --    0.45412   0.46411   0.46445   0.50917   0.53589
 Alpha virt. eigenvalues --    0.54356   0.56132   0.58334   0.59535   0.62940
 Alpha virt. eigenvalues --    0.65250   0.67452   0.69680   0.71361   0.72135
 Alpha virt. eigenvalues --    0.73052   0.77612   0.82136   0.82149   0.84272
 Alpha virt. eigenvalues --    0.87044   0.90478   0.91982   0.95793   0.99317
 Alpha virt. eigenvalues --    0.99917   1.03509   1.09550   1.09711   1.15109
 Alpha virt. eigenvalues --    1.17470   1.21522   1.21997   1.28202   1.30165
 Alpha virt. eigenvalues --    1.34332   1.35063   1.39272   1.43527   1.44608
 Alpha virt. eigenvalues --    1.48007   1.49804   1.50013   1.54809   1.57056
 Alpha virt. eigenvalues --    1.59607   1.68578   1.71583   1.79019   1.80654
 Alpha virt. eigenvalues --    1.85206   1.87180   1.91284   1.94694   2.00809
 Alpha virt. eigenvalues --    2.02242   2.02378   2.07840   2.27424   2.28622
 Alpha virt. eigenvalues --    2.30900   2.32324   2.40615   2.44617   2.46998
 Alpha virt. eigenvalues --    2.60542   2.62754   2.66977   2.75311   2.83197
 Alpha virt. eigenvalues --    2.85961   2.90179   2.94979   2.96558   3.00845
 Alpha virt. eigenvalues --    3.07211   3.07847   3.08542   3.18221   3.18859
 Alpha virt. eigenvalues --    3.20178   3.26142   3.28390   3.34381   3.35437
 Alpha virt. eigenvalues --    3.38275   3.38819   3.42505   3.44407   3.48871
 Alpha virt. eigenvalues --    3.50083   3.56443   3.57545   3.62258   3.63242
 Alpha virt. eigenvalues --    3.64815   3.67138   3.71852   3.74983   3.75464
 Alpha virt. eigenvalues --    3.76642   3.79715   3.84219   3.84987   3.89213
 Alpha virt. eigenvalues --    3.91817   3.94846   3.96595   3.97639   4.00448
 Alpha virt. eigenvalues --    4.04818   4.11595   4.13284   4.15039   4.20187
 Alpha virt. eigenvalues --    4.21505   4.22912   4.24218   4.26750   4.35035
 Alpha virt. eigenvalues --    4.39548   4.40828   4.42603   4.43644   4.49243
 Alpha virt. eigenvalues --    4.56059   4.56643   4.57334   4.61145   4.68781
 Alpha virt. eigenvalues --    4.71152   4.74196   4.76563   4.78699   4.84753
 Alpha virt. eigenvalues --    4.88325   5.05312   5.05476   5.16034   5.20883
 Alpha virt. eigenvalues --    5.21508   5.29732   5.30194   5.39556   5.47490
 Alpha virt. eigenvalues --    5.49842   5.54717   5.59139   5.63328   5.63992
 Alpha virt. eigenvalues --    5.66810   5.71883   5.77585   5.77961   5.87758
 Alpha virt. eigenvalues --    5.95901   6.03246   6.07196   6.08173   6.16356
 Alpha virt. eigenvalues --    6.17033   6.21511   6.31129   6.34944   6.45350
 Alpha virt. eigenvalues --    6.48289   6.51659   6.67784   6.75530   6.75906
 Alpha virt. eigenvalues --    6.85684   6.93781   6.97067   7.08037   7.09044
 Alpha virt. eigenvalues --    7.17645   7.25901   7.28505   7.33340   7.37222
 Alpha virt. eigenvalues --    7.47200   7.56034   7.60879   7.76630   7.92528
 Alpha virt. eigenvalues --    9.52152  12.73175  12.90581  13.88297  14.06112
          Condensed to atoms (all electrons):
               1          2          3          4          5          6
     1  C    4.290235   0.402071   0.766803  -0.031846   0.333058  -0.067756
     2  O    0.402071   7.732296  -0.084101   0.324992  -0.088479   0.006057
     3  O    0.766803  -0.084101   7.758380   0.004685  -0.089218   0.000472
     4  H   -0.031846   0.324992   0.004685   0.471189   0.001604   0.000256
     5  C    0.333058  -0.088479  -0.089218   0.001604   4.901274   0.335001
     6  N   -0.067756   0.006057   0.000472   0.000256   0.335001   6.322814
     7  H   -0.036280   0.003820   0.000465  -0.000364   0.410659  -0.021567
     8  H   -0.036280   0.003820   0.000465  -0.000364   0.410659  -0.021567
     9  H   -0.003361   0.000291   0.005439  -0.000044  -0.041316   0.397944
    10  H   -0.003361   0.000291   0.005439  -0.000044  -0.041316   0.397944
               7          8          9         10
     1  C   -0.036280  -0.036280  -0.003361  -0.003361
     2  O    0.003820   0.003820   0.000291   0.000291
     3  O    0.000465   0.000465   0.005439   0.005439
     4  H   -0.000364  -0.000364  -0.000044  -0.000044
     5  C    0.410659   0.410659  -0.041316  -0.041316
     6  N   -0.021567  -0.021567   0.397944   0.397944
     7  H    0.566546  -0.038704  -0.008300   0.007945
     8  H   -0.038704   0.566546   0.007945  -0.008300
     9  H   -0.008300   0.007945   0.533609  -0.043807
    10  H    0.007945  -0.008300  -0.043807   0.533609
 Mulliken charges:
               1
     1  C    0.386717
     2  O   -0.301059
     3  O   -0.368830
     4  H    0.229936
     5  C   -0.131926
     6  N   -0.349598
     7  H    0.115780
     8  H    0.115780
     9  H    0.151600
    10  H    0.151600
 Sum of Mulliken charges =  -0.00000
 Mulliken charges with hydrogens summed into heavy atoms:
               1
     1  C    0.386717
     2  O   -0.071123
     3  O   -0.368830
     5  C    0.099634
     6  N   -0.046398
 Electronic spatial extent (au):  <R**2>=            419.4313
 Charge=             -0.0000 electrons
 Dipole moment (field-independent basis, Debye):
    X=              2.9988    Y=             -1.5888    Z=             -0.0000  Tot=              3.3936
 Quadrupole moment (field-independent basis, Debye-Ang):
   XX=            -26.3749   YY=            -38.5359   ZZ=            -27.0521
   XY=              3.9836   XZ=              0.0000   YZ=             -0.0000
 Traceless Quadrupole moment (field-independent basis, Debye-Ang):
   XX=              4.2794   YY=             -7.8816   ZZ=              3.6022
   XY=              3.9836   XZ=              0.0000   YZ=             -0.0000
 Octapole moment (field-independent basis, Debye-Ang**2):
  XXX=             12.0363  YYY=             13.8587  ZZZ=              0.0000  XYY=             -2.1412
  XXY=             -1.4930  XXZ=              0.0000  XZZ=             -1.3894  YZZ=             -1.7506
  YYZ=             -0.0000  XYZ=             -0.0000
 Hexadecapole moment (field-independent basis, Debye-Ang**3):
 XXXX=           -125.5203 YYYY=           -383.0321 ZZZZ=            -33.5544 XXXY=             -1.7938
 XXXZ=             -0.0000 YYYX=            -19.5403 YYYZ=             -0.0000 ZZZX=             -0.0000
 ZZZY=             -0.0000 XXYY=            -69.9982 XXZZ=            -27.2343 YYZZ=            -54.1210
 XXYZ=              0.0000 YYXZ=              0.0000 ZZXY=             -4.7896
 N-N= 1.796626212364D+02 E-N=-1.025626433852D+03  KE= 2.825761669015D+02
 Symmetry A'   KE= 2.697867960565D+02
 Symmetry A"   KE= 1.278937084501D+01
 Leave Link  601 at Sat Oct 15 15:16:42 2016, MaxMem= 13421772800 cpu:         2.3
 (Enter /share/pub/jeff/software/g09/g09/l9999.exe)
 1\1\GINC-R01N04\SP\RCCSD(T)-FC\CC-pVTZ\C2H5N1O2\JIANGZHONGMING\15-Oct-
 2016\0\\#P CCSD(T) cc-pVTZ\\start best geom PCCP paper\\0,1\C\O,1,1.35
 431\O,1,1.19608,2,120.26189\H,2,0.961906,1,110.63119,3,180.,0\C,1,1.52
 269,3,124.62553,2,180.,0\N,5,1.44073,1,115.35662,3,0.,0\H,5,1.09261,1,
 107.80356,3,-122.62433,0\H,5,1.09261,1,107.80356,3,122.62433,0\H,6,1.0
 1113,5,110.22995,1,-58.35404,0\H,6,1.01113,5,110.22995,1,58.35404,0\\V
 ersion=ES64L-G09RevE.01\State=1-A'\HF=-282.9388167\MP2=-283.9485315\MP
 3=-283.9606665\MP4D=-283.9809932\MP4DQ=-283.9591951\MP4SDQ=-283.970262
 \CCSD=-283.9672977\CCSD(T)=-284.0098186\RMSD=4.325e-09\PG=CS [SG(C2H1N
 1O2),X(H4)]\\@


 KNOWLEDGE IS OF TWO KINDS:  WE KNOW A SUBJECT OURSELVES OR WE KNOW 
 WHERE WE CAN FIND INFORMATION UPON IT.

                                    -- SAMUEL JOHNSON
 Job cpu time:       0 days  1 hours 37 minutes 36.8 seconds.
 File lengths (MBytes):  RWF=   3588 Int=      0 D2E=      0 Chk=      8 Scr=      8
 Normal termination of Gaussian 09 at Sat Oct 15 15:16:42 2016.
