 Entering Gaussian System, Link 0=g09
 Initial command:
 /share/pub/jeff/software/g09/g09/l1.exe "/share/home/jiangzhongming/tmp/Gau-42734.inp" -scrdir="/share/home/jiangzhongming/tmp/"
 Entering Link 1 = /share/pub/jeff/software/g09/g09/l1.exe PID=     42735.
  
 Copyright (c) 1988,1990,1992,1993,1995,1998,2003,2009,2015,
            Gaussian, Inc.  All Rights Reserved.
  
 This is part of the Gaussian(R) 09 program.  It is based on
 the Gaussian(R) 03 system (copyright 2003, Gaussian, Inc.),
 the Gaussian(R) 98 system (copyright 1998, Gaussian, Inc.),
 the Gaussian(R) 94 system (copyright 1995, Gaussian, Inc.),
 the Gaussian 92(TM) system (copyright 1992, Gaussian, Inc.),
 the Gaussian 90(TM) system (copyright 1990, Gaussian, Inc.),
 the Gaussian 88(TM) system (copyright 1988, Gaussian, Inc.),
 the Gaussian 86(TM) system (copyright 1986, Carnegie Mellon
 University), and the Gaussian 82(TM) system (copyright 1983,
 Carnegie Mellon University). Gaussian is a federally registered
 trademark of Gaussian, Inc.
  
 This software contains proprietary and confidential information,
 including trade secrets, belonging to Gaussian, Inc.
  
 This software is provided under written license and may be
 used, copied, transmitted, or stored only in accord with that
 written license.
  
 The following legend is applicable only to US Government
 contracts under FAR:
  
                    RESTRICTED RIGHTS LEGEND
  
 Use, reproduction and disclosure by the US Government is
 subject to restrictions as set forth in subparagraphs (a)
 and (c) of the Commercial Computer Software - Restricted
 Rights clause in FAR 52.227-19.
  
 Gaussian, Inc.
 340 Quinnipiac St., Bldg. 40, Wallingford CT 06492
  
  
 ---------------------------------------------------------------
 Warning -- This program may not be used in any manner that
 competes with the business of Gaussian, Inc. or will provide
 assistance to any competitor of Gaussian, Inc.  The licensee
 of this program is prohibited from giving any competitor of
 Gaussian, Inc. access to this program.  By using this program,
 the user acknowledges that Gaussian, Inc. is engaged in the
 business of creating and licensing software in the field of
 computational chemistry and represents and warrants to the
 licensee that it is not a competitor of Gaussian, Inc. and that
 it will not use this program in any manner prohibited above.
 ---------------------------------------------------------------
  

 Cite this work as:
 Gaussian 09, Revision E.01,
 M. J. Frisch, G. W. Trucks, H. B. Schlegel, G. E. Scuseria, 
 M. A. Robb, J. R. Cheeseman, G. Scalmani, V. Barone, B. Mennucci, 
 G. A. Petersson, H. Nakatsuji, M. Caricato, X. Li, H. P. Hratchian, 
 A. F. Izmaylov, J. Bloino, G. Zheng, J. L. Sonnenberg, M. Hada, 
 M. Ehara, K. Toyota, R. Fukuda, J. Hasegawa, M. Ishida, T. Nakajima, 
 Y. Honda, O. Kitao, H. Nakai, T. Vreven, J. A. Montgomery, Jr., 
 J. E. Peralta, F. Ogliaro, M. Bearpark, J. J. Heyd, E. Brothers, 
 K. N. Kudin, V. N. Staroverov, T. Keith, R. Kobayashi, J. Normand, 
 K. Raghavachari, A. Rendell, J. C. Burant, S. S. Iyengar, J. Tomasi, 
 M. Cossi, N. Rega, J. M. Millam, M. Klene, J. E. Knox, J. B. Cross, 
 V. Bakken, C. Adamo, J. Jaramillo, R. Gomperts, R. E. Stratmann, 
 O. Yazyev, A. J. Austin, R. Cammi, C. Pomelli, J. W. Ochterski, 
 R. L. Martin, K. Morokuma, V. G. Zakrzewski, G. A. Voth, 
 P. Salvador, J. J. Dannenberg, S. Dapprich, A. D. Daniels, 
 O. Farkas, J. B. Foresman, J. V. Ortiz, J. Cioslowski, 
 and D. J. Fox, Gaussian, Inc., Wallingford CT, 2013.
 
 ******************************************
 Gaussian 09:  ES64L-G09RevE.01 30-Nov-2015
                15-Oct-2016 
 ******************************************
 %chk=ttt_Best_geom_CCSDT_VTZ.chk
 %nprocshared=16
 Will use up to   16 processors via shared memory.
 %mem=100GB
 ------------------
 #P CCSD(T) cc-pVTZ
 ------------------
 1/38=1/1;
 2/12=2,17=6,18=5,40=1/2;
 3/5=16,6=1,11=9,16=1,25=1,30=1/1,2,3;
 4//1;
 5/5=2,38=5/2;
 8/6=4,9=120000,10=1/1,4;
 9/5=7,14=2/13;
 6/7=2,8=2,9=2,10=2/1;
 99/5=1,9=1/99;
 Leave Link    1 at Sat Oct 15 15:16:42 2016, MaxMem= 13421772800 cpu:         1.5
 (Enter /share/pub/jeff/software/g09/g09/l101.exe)
 --------------------------
 start best geom PCCP paper
 --------------------------
 Symbolic Z-matrix:
 Charge =  0 Multiplicity = 1
 C
 O                    1    B1
 O                    1    B2       2    A1
 H                    2    B3       1    A2       3    D1       0
 C                    1    B4       3    A3       2    D2       0
 N                    5    B5       1    A4       3    D3       0
 H                    5    B6       1    A5       3    D4       0
 H                    5    B6       1    A5       3    D4m      0
 H                    6    B8       5    A7       1    D6       0
 H                    6    B8       5    A7       1    D6m      0
       Variables:
  B1                    1.3486                   
  B2                    1.2025                   
  A1                  123.0718                   
  B3                    0.9651                   
  A2                  107.1011                   
  B4                    1.5141                   
  A3                  125.77                     
  B5                    1.442                    
  A4                  115.3802                   
  B6                    1.0905                   
  A5                  107.3709                   
  D4                 -123.1312                   
  D4m                 123.1312                   
  B8                    1.0109                   
  A7                  110.5508                   
  D6                  -58.6741                   
  D6m                  58.6741                   
  D1                    0.                       
  D2                  180.                       
  D3                    0.                       
 
 NAtoms=     10 NQM=       10 NQMF=       0 NMMI=      0 NMMIF=      0
                NMic=       0 NMicF=      0.
                    Isotopes and Nuclear Properties:
 (Nuclear quadrupole moments (NQMom) in fm**2, nuclear magnetic moments (NMagM)
  in nuclear magnetons)

  Atom         1           2           3           4           5           6           7           8           9          10
 IAtWgt=          12          16          16           1          12          14           1           1           1           1
 AtmWgt=  12.0000000  15.9949146  15.9949146   1.0078250  12.0000000  14.0030740   1.0078250   1.0078250   1.0078250   1.0078250
 NucSpn=           0           0           0           1           0           2           1           1           1           1
 AtZEff=   0.0000000   0.0000000   0.0000000   0.0000000   0.0000000   0.0000000   0.0000000   0.0000000   0.0000000   0.0000000
 NQMom=    0.0000000   0.0000000   0.0000000   0.0000000   0.0000000   2.0440000   0.0000000   0.0000000   0.0000000   0.0000000
 NMagM=    0.0000000   0.0000000   0.0000000   2.7928460   0.0000000   0.4037610   2.7928460   2.7928460   2.7928460   2.7928460
 AtZNuc=   6.0000000   8.0000000   8.0000000   1.0000000   6.0000000   7.0000000   1.0000000   1.0000000   1.0000000   1.0000000
 Leave Link  101 at Sat Oct 15 15:16:42 2016, MaxMem= 13421772800 cpu:         1.1
 (Enter /share/pub/jeff/software/g09/g09/l202.exe)
                          Input orientation:                          
 ---------------------------------------------------------------------
 Center     Atomic      Atomic             Coordinates (Angstroms)
 Number     Number       Type             X           Y           Z
 ---------------------------------------------------------------------
      1          6           0        0.000000    0.000000    0.000000
      2          8           0        0.000000    0.000000    1.348600
      3          8           0        1.007680    0.000000   -0.656192
      4          1           0        0.922430    0.000000    1.632396
      5          6           0       -1.412031    0.000000   -0.546506
      6          7           0       -1.518192    0.000000   -1.984593
      7          1           0       -1.920977    0.871558   -0.133529
      8          1           0       -1.920977   -0.871558   -0.133529
      9          1           0       -1.053528    0.808581   -2.374724
     10          1           0       -1.053528   -0.808581   -2.374724
 ---------------------------------------------------------------------
                    Distance matrix (angstroms):
                    1          2          3          4          5
     1  C    0.000000
     2  O    1.348600   0.000000
     3  O    1.202500   2.243793   0.000000
     4  H    1.874992   0.965100   2.290175   0.000000
     5  C    1.514100   2.363315   2.422195   3.193324   0.000000
     6  N    2.498703   3.662660   2.853888   4.363398   1.442000
     7  H    2.113669   2.578075   3.099971   3.458767   1.090500
     8  H    2.113669   2.578075   3.099971   3.458767   1.090500
     9  H    2.720853   3.953083   2.802808   4.540399   2.030938
    10  H    2.720853   3.953083   2.802808   4.540399   2.030938
                    6          7          8          9         10
     6  N    0.000000
     7  H    2.085254   0.000000
     8  H    2.085254   1.743117   0.000000
     9  H    1.010900   2.404037   2.932285   0.000000
    10  H    1.010900   2.932285   2.404037   1.617161   0.000000
 Stoichiometry    C2H5NO2
 Framework group  CS[SG(C2HNO2),X(H4)]
 Deg. of freedom    15
 Full point group                 CS      NOp   2
 Largest Abelian subgroup         CS      NOp   2
 Largest concise Abelian subgroup CS      NOp   2
                         Standard orientation:                         
 ---------------------------------------------------------------------
 Center     Atomic      Atomic             Coordinates (Angstroms)
 Number     Number       Type             X           Y           Z
 ---------------------------------------------------------------------
      1          6           0        0.000000    0.549747    0.000000
      2          8           0        0.985218    1.470653    0.000000
      3          8           0       -1.167485    0.837818    0.000000
      4          1           0        0.562653    2.338326    0.000000
      5          6           0        0.564972   -0.854997    0.000000
      6          7           0       -0.413127   -1.914567    0.000000
      7          1           0        1.214211   -0.944801    0.871558
      8          1           0        1.214211   -0.944801   -0.871558
      9          1           0       -1.015438   -1.841513    0.808581
     10          1           0       -1.015438   -1.841513   -0.808581
 ---------------------------------------------------------------------
 Rotational constants (GHZ):     10.3961957      3.9010533      2.9303554
 Leave Link  202 at Sat Oct 15 15:16:42 2016, MaxMem= 13421772800 cpu:         0.4
 (Enter /share/pub/jeff/software/g09/g09/l301.exe)
 Standard basis: CC-pVTZ (5D, 7F)
 Ernie: Thresh=  0.10000D-02 Tol=  0.10000D-05 Strict=F.
 Ernie:  15 primitive shells out of 170 were deleted.
 There are   161 symmetry adapted cartesian basis functions of A'  symmetry.
 There are    89 symmetry adapted cartesian basis functions of A"  symmetry.
 There are   138 symmetry adapted basis functions of A'  symmetry.
 There are    82 symmetry adapted basis functions of A"  symmetry.
   220 basis functions,   345 primitive gaussians,   250 cartesian basis functions
    20 alpha electrons       20 beta electrons
       nuclear repulsion energy       179.7404034807 Hartrees.
 IExCor=    0 DFT=F Ex=HF Corr=None ExCW=0 ScaHFX=  1.000000
 ScaDFX=  1.000000  1.000000  1.000000  1.000000 ScalE2=  1.000000  1.000000
 IRadAn=      0 IRanWt=     -1 IRanGd=            0 ICorTp=0 IEmpDi=  4
 NAtoms=   10 NActive=   10 NUniq=    8 SFac= 1.56D+00 NAtFMM=   60 NAOKFM=F Big=F
 Integral buffers will be    131072 words long.
 Raffenetti 1 integral format.
 Two-electron integral symmetry is turned on.
 Leave Link  301 at Sat Oct 15 15:16:42 2016, MaxMem= 13421772800 cpu:         1.4
 (Enter /share/pub/jeff/software/g09/g09/l302.exe)
 NPDir=0 NMtPBC=     1 NCelOv=     1 NCel=       1 NClECP=     1 NCelD=      1
         NCelK=      1 NCelE2=     1 NClLst=     1 CellRange=     0.0.
 One-electron integrals computed using PRISM.
 One-electron integral symmetry used in STVInt
 NBasis=   220 RedAO= T EigKep=  6.95D-04  NBF=   138    82
 NBsUse=   220 1.00D-06 EigRej= -1.00D+00 NBFU=   138    82
 Leave Link  302 at Sat Oct 15 15:16:43 2016, MaxMem= 13421772800 cpu:         3.2
 (Enter /share/pub/jeff/software/g09/g09/l303.exe)
 DipDrv:  MaxL=1.
 Leave Link  303 at Sat Oct 15 15:16:43 2016, MaxMem= 13421772800 cpu:         0.5
 (Enter /share/pub/jeff/software/g09/g09/l401.exe)
 ExpMin= 1.03D-01 ExpMax= 1.53D+04 ExpMxC= 5.22D+02 IAcc=1 IRadAn=         1 AccDes= 0.00D+00
 Harris functional with IExCor=  205 and IRadAn=       1 diagonalized for initial guess.
 HarFok:  IExCor=  205 AccDes= 0.00D+00 IRadAn=         1 IDoV= 1 UseB2=F ITyADJ=14
 ICtDFT=  3500011 ScaDFX=  1.000000  1.000000  1.000000  1.000000
 FoFCou: FMM=F IPFlag=           0 FMFlag=      100000 FMFlg1=           0
         NFxFlg=           0 DoJE=T BraDBF=F KetDBF=T FulRan=T
         wScrn=  0.000000 ICntrl=     500 IOpCl=  0 I1Cent=   200000004 NGrid=           0
         NMat0=    1 NMatS0=      1 NMatT0=    0 NMatD0=    1 NMtDS0=    0 NMtDT0=    0
 Petite list used in FoFCou.
 Harris En= -283.226139528229    
 JPrj=0 DoOrth=F DoCkMO=F.
 Initial guess orbital symmetries:
       Occupied  (A') (A') (A') (A') (A') (A') (A') (A') (A') (A')
                 (A") (A') (A') (A') (A") (A') (A") (A") (A') (A')
       Virtual   (A") (A') (A') (A') (A") (A') (A") (A') (A') (A')
                 (A') (A") (A') (A") (A') (A') (A") (A') (A') (A")
                 (A') (A') (A') (A") (A') (A') (A") (A') (A") (A')
                 (A') (A") (A') (A") (A') (A") (A") (A') (A') (A')
                 (A") (A') (A') (A") (A") (A') (A") (A") (A') (A')
                 (A') (A') (A") (A') (A") (A') (A') (A') (A') (A")
                 (A") (A') (A') (A') (A") (A') (A") (A') (A') (A")
                 (A") (A') (A') (A') (A") (A') (A") (A') (A') (A')
                 (A") (A') (A') (A") (A') (A') (A") (A') (A") (A')
                 (A") (A') (A") (A') (A') (A") (A") (A') (A') (A")
                 (A') (A") (A") (A') (A") (A') (A") (A') (A") (A")
                 (A') (A') (A") (A') (A") (A') (A') (A") (A") (A')
                 (A') (A') (A") (A') (A') (A") (A") (A') (A") (A")
                 (A') (A') (A') (A") (A') (A') (A") (A') (A") (A')
                 (A") (A') (A') (A") (A') (A') (A') (A") (A') (A')
                 (A") (A") (A') (A') (A') (A") (A') (A") (A') (A")
                 (A') (A') (A') (A") (A') (A") (A') (A') (A") (A')
                 (A") (A') (A') (A") (A") (A') (A") (A') (A") (A')
                 (A") (A') (A") (A') (A") (A') (A") (A') (A") (A')
                 (A") (A') (A') (A') (A') (A') (A') (A') (A') (A')
 The electronic state of the initial guess is 1-A'.
 Leave Link  401 at Sat Oct 15 15:16:43 2016, MaxMem= 13421772800 cpu:         3.8
 (Enter /share/pub/jeff/software/g09/g09/l502.exe)
 Closed shell SCF:
 Using DIIS extrapolation, IDIIS=  1040.
 Integral symmetry usage will be decided dynamically.
 Keep R1 ints in memory in symmetry-blocked form, NReq=444223844.
 IVT=      212174 IEndB=      212174 NGot= 13421772800 MDV= 13273049382
 LenX= 13273049382 LenY= 13272986441
 Requested convergence on RMS density matrix=1.00D-08 within 128 cycles.
 Requested convergence on MAX density matrix=1.00D-06.
 Requested convergence on             energy=1.00D-06.
 No special actions if energy rises.
 FoFCou: FMM=F IPFlag=           0 FMFlag=           0 FMFlg1=           0
         NFxFlg=           0 DoJE=F BraDBF=F KetDBF=F FulRan=T
         wScrn=  0.000000 ICntrl=     600 IOpCl=  0 I1Cent=           0 NGrid=           0
         NMat0=    1 NMatS0=  24310 NMatT0=    0 NMatD0=    1 NMtDS0=    0 NMtDT0=    0
 Petite list used in FoFCou.

 Cycle   1  Pass 1  IDiag  1:
 E= -282.708890405715    
 DIIS: error= 3.31D-02 at cycle   1 NSaved=   1.
 NSaved= 1 IEnMin= 1 EnMin= -282.708890405715     IErMin= 1 ErrMin= 3.31D-02
 ErrMax= 3.31D-02  0.00D+00 EMaxC= 1.00D-01 BMatC= 5.77D-01 BMatP= 5.77D-01
 IDIUse=3 WtCom= 6.69D-01 WtEn= 3.31D-01
 Coeff-Com:  0.100D+01
 Coeff-En:   0.100D+01
 Coeff:      0.100D+01
 Gap=     0.485 Goal=   None    Shift=    0.000
 GapD=    0.485 DampG=2.000 DampE=0.500 DampFc=1.0000 IDamp=-1.
 RMSDP=1.95D-03 MaxDP=8.16D-02              OVMax= 1.17D-01

 Cycle   2  Pass 1  IDiag  1:
 E= -282.895314121657     Delta-E=       -0.186423715942 Rises=F Damp=F
 DIIS: error= 1.42D-02 at cycle   2 NSaved=   2.
 NSaved= 2 IEnMin= 2 EnMin= -282.895314121657     IErMin= 2 ErrMin= 1.42D-02
 ErrMax= 1.42D-02  0.00D+00 EMaxC= 1.00D-01 BMatC= 7.83D-02 BMatP= 5.77D-01
 IDIUse=3 WtCom= 8.58D-01 WtEn= 1.42D-01
 Coeff-Com:  0.202D+00 0.798D+00
 Coeff-En:   0.000D+00 0.100D+01
 Coeff:      0.173D+00 0.827D+00
 Gap=     0.579 Goal=   None    Shift=    0.000
 RMSDP=9.97D-04 MaxDP=4.55D-02 DE=-1.86D-01 OVMax= 5.28D-02

 Cycle   3  Pass 1  IDiag  1:
 E= -282.941289151767     Delta-E=       -0.045975030110 Rises=F Damp=F
 DIIS: error= 8.54D-03 at cycle   3 NSaved=   3.
 NSaved= 3 IEnMin= 3 EnMin= -282.941289151767     IErMin= 3 ErrMin= 8.54D-03
 ErrMax= 8.54D-03  0.00D+00 EMaxC= 1.00D-01 BMatC= 1.02D-02 BMatP= 7.83D-02
 IDIUse=3 WtCom= 9.15D-01 WtEn= 8.54D-02
 Coeff-Com: -0.232D-01 0.235D+00 0.788D+00
 Coeff-En:   0.000D+00 0.000D+00 0.100D+01
 Coeff:     -0.212D-01 0.215D+00 0.806D+00
 Gap=     0.550 Goal=   None    Shift=    0.000
 RMSDP=2.11D-04 MaxDP=8.28D-03 DE=-4.60D-02 OVMax= 2.61D-02

 Cycle   4  Pass 1  IDiag  1:
 E= -282.947700933375     Delta-E=       -0.006411781608 Rises=F Damp=F
 DIIS: error= 1.25D-03 at cycle   4 NSaved=   4.
 NSaved= 4 IEnMin= 4 EnMin= -282.947700933375     IErMin= 4 ErrMin= 1.25D-03
 ErrMax= 1.25D-03  0.00D+00 EMaxC= 1.00D-01 BMatC= 4.57D-04 BMatP= 1.02D-02
 IDIUse=3 WtCom= 9.87D-01 WtEn= 1.25D-02
 Coeff-Com: -0.114D-01 0.509D-01 0.267D+00 0.693D+00
 Coeff-En:   0.000D+00 0.000D+00 0.000D+00 0.100D+01
 Coeff:     -0.113D-01 0.502D-01 0.264D+00 0.697D+00
 Gap=     0.547 Goal=   None    Shift=    0.000
 RMSDP=6.83D-05 MaxDP=2.57D-03 DE=-6.41D-03 OVMax= 5.08D-03

 Cycle   5  Pass 1  IDiag  1:
 E= -282.948073042626     Delta-E=       -0.000372109251 Rises=F Damp=F
 DIIS: error= 7.07D-04 at cycle   5 NSaved=   5.
 NSaved= 5 IEnMin= 5 EnMin= -282.948073042626     IErMin= 5 ErrMin= 7.07D-04
 ErrMax= 7.07D-04  0.00D+00 EMaxC= 1.00D-01 BMatC= 2.61D-05 BMatP= 4.57D-04
 IDIUse=3 WtCom= 9.93D-01 WtEn= 7.07D-03
 Coeff-Com:  0.215D-02-0.233D-01-0.824D-01 0.210D-01 0.108D+01
 Coeff-En:   0.000D+00 0.000D+00 0.000D+00 0.000D+00 0.100D+01
 Coeff:      0.214D-02-0.231D-01-0.818D-01 0.209D-01 0.108D+01
 Gap=     0.548 Goal=   None    Shift=    0.000
 RMSDP=3.71D-05 MaxDP=1.13D-03 DE=-3.72D-04 OVMax= 3.75D-03

 Cycle   6  Pass 1  IDiag  1:
 E= -282.948122936073     Delta-E=       -0.000049893447 Rises=F Damp=F
 DIIS: error= 1.52D-04 at cycle   6 NSaved=   6.
 NSaved= 6 IEnMin= 6 EnMin= -282.948122936073     IErMin= 6 ErrMin= 1.52D-04
 ErrMax= 1.52D-04  0.00D+00 EMaxC= 1.00D-01 BMatC= 4.07D-06 BMatP= 2.61D-05
 IDIUse=3 WtCom= 9.98D-01 WtEn= 1.52D-03
 Coeff-Com:  0.161D-02-0.110D-01-0.459D-01-0.762D-01 0.234D+00 0.897D+00
 Coeff-En:   0.000D+00 0.000D+00 0.000D+00 0.000D+00 0.000D+00 0.100D+01
 Coeff:      0.161D-02-0.110D-01-0.459D-01-0.761D-01 0.234D+00 0.897D+00
 Gap=     0.548 Goal=   None    Shift=    0.000
 RMSDP=1.48D-05 MaxDP=5.92D-04 DE=-4.99D-05 OVMax= 1.04D-03

 Cycle   7  Pass 1  IDiag  1:
 E= -282.948130017966     Delta-E=       -0.000007081894 Rises=F Damp=F
 DIIS: error= 5.68D-05 at cycle   7 NSaved=   7.
 NSaved= 7 IEnMin= 7 EnMin= -282.948130017966     IErMin= 7 ErrMin= 5.68D-05
 ErrMax= 5.68D-05  0.00D+00 EMaxC= 1.00D-01 BMatC= 4.81D-07 BMatP= 4.07D-06
 IDIUse=1 WtCom= 1.00D+00 WtEn= 0.00D+00
 Coeff-Com: -0.256D-03 0.290D-02 0.125D-01-0.921D-02-0.129D+00-0.333D-01
 Coeff-Com:  0.116D+01
 Coeff:     -0.256D-03 0.290D-02 0.125D-01-0.921D-02-0.129D+00-0.333D-01
 Coeff:      0.116D+01
 Gap=     0.548 Goal=   None    Shift=    0.000
 RMSDP=6.01D-06 MaxDP=2.18D-04 DE=-7.08D-06 OVMax= 7.27D-04

 Cycle   8  Pass 1  IDiag  1:
 E= -282.948131324636     Delta-E=       -0.000001306670 Rises=F Damp=F
 DIIS: error= 2.07D-05 at cycle   8 NSaved=   8.
 NSaved= 8 IEnMin= 8 EnMin= -282.948131324636     IErMin= 8 ErrMin= 2.07D-05
 ErrMax= 2.07D-05  0.00D+00 EMaxC= 1.00D-01 BMatC= 6.69D-08 BMatP= 4.81D-07
 IDIUse=1 WtCom= 1.00D+00 WtEn= 0.00D+00
 Coeff-Com: -0.192D-03 0.126D-02 0.536D-02 0.619D-02-0.140D-01-0.110D+00
 Coeff-Com: -0.108D+00 0.122D+01
 Coeff:     -0.192D-03 0.126D-02 0.536D-02 0.619D-02-0.140D-01-0.110D+00
 Coeff:     -0.108D+00 0.122D+01
 Gap=     0.548 Goal=   None    Shift=    0.000
 RMSDP=2.29D-06 MaxDP=8.10D-05 DE=-1.31D-06 OVMax= 2.91D-04

 Cycle   9  Pass 1  IDiag  1:
 E= -282.948131513454     Delta-E=       -0.000000188818 Rises=F Damp=F
 DIIS: error= 7.41D-06 at cycle   9 NSaved=   9.
 NSaved= 9 IEnMin= 9 EnMin= -282.948131513454     IErMin= 9 ErrMin= 7.41D-06
 ErrMax= 7.41D-06  0.00D+00 EMaxC= 1.00D-01 BMatC= 8.55D-09 BMatP= 6.69D-08
 IDIUse=1 WtCom= 1.00D+00 WtEn= 0.00D+00
 Coeff-Com: -0.424D-05-0.136D-03-0.604D-03 0.151D-02 0.161D-01-0.147D-01
 Coeff-Com: -0.169D+00 0.206D+00 0.961D+00
 Coeff:     -0.424D-05-0.136D-03-0.604D-03 0.151D-02 0.161D-01-0.147D-01
 Coeff:     -0.169D+00 0.206D+00 0.961D+00
 Gap=     0.548 Goal=   None    Shift=    0.000
 RMSDP=7.07D-07 MaxDP=2.33D-05 DE=-1.89D-07 OVMax= 8.21D-05

 Cycle  10  Pass 1  IDiag  1:
 E= -282.948131531532     Delta-E=       -0.000000018078 Rises=F Damp=F
 DIIS: error= 2.54D-06 at cycle  10 NSaved=  10.
 NSaved=10 IEnMin=10 EnMin= -282.948131531532     IErMin=10 ErrMin= 2.54D-06
 ErrMax= 2.54D-06  0.00D+00 EMaxC= 1.00D-01 BMatC= 7.79D-10 BMatP= 8.55D-09
 IDIUse=1 WtCom= 1.00D+00 WtEn= 0.00D+00
 Coeff-Com:  0.254D-04-0.180D-03-0.732D-03-0.118D-02 0.269D-02 0.143D-01
 Coeff-Com:  0.147D-01-0.162D+00-0.115D-02 0.113D+01
 Coeff:      0.254D-04-0.180D-03-0.732D-03-0.118D-02 0.269D-02 0.143D-01
 Coeff:      0.147D-01-0.162D+00-0.115D-02 0.113D+01
 Gap=     0.548 Goal=   None    Shift=    0.000
 RMSDP=2.39D-07 MaxDP=7.10D-06 DE=-1.81D-08 OVMax= 2.38D-05

 Cycle  11  Pass 1  IDiag  1:
 E= -282.948131533351     Delta-E=       -0.000000001819 Rises=F Damp=F
 DIIS: error= 5.12D-07 at cycle  11 NSaved=  11.
 NSaved=11 IEnMin=11 EnMin= -282.948131533351     IErMin=11 ErrMin= 5.12D-07
 ErrMax= 5.12D-07  0.00D+00 EMaxC= 1.00D-01 BMatC= 5.28D-11 BMatP= 7.79D-10
 IDIUse=1 WtCom= 1.00D+00 WtEn= 0.00D+00
 Coeff-Com:  0.926D-06 0.326D-05 0.439D-04-0.141D-03-0.835D-03 0.452D-03
 Coeff-Com:  0.105D-01-0.879D-02-0.695D-01-0.332D-01 0.110D+01
 Coeff:      0.926D-06 0.326D-05 0.439D-04-0.141D-03-0.835D-03 0.452D-03
 Coeff:      0.105D-01-0.879D-02-0.695D-01-0.332D-01 0.110D+01
 Gap=     0.548 Goal=   None    Shift=    0.000
 RMSDP=5.88D-08 MaxDP=2.09D-06 DE=-1.82D-09 OVMax= 3.85D-06

 Cycle  12  Pass 1  IDiag  1:
 E= -282.948131533466     Delta-E=       -0.000000000114 Rises=F Damp=F
 DIIS: error= 1.26D-07 at cycle  12 NSaved=  12.
 NSaved=12 IEnMin=12 EnMin= -282.948131533466     IErMin=12 ErrMin= 1.26D-07
 ErrMax= 1.26D-07  0.00D+00 EMaxC= 1.00D-01 BMatC= 3.44D-12 BMatP= 5.28D-11
 IDIUse=1 WtCom= 1.00D+00 WtEn= 0.00D+00
 Coeff-Com: -0.189D-05 0.137D-04 0.597D-04 0.781D-04-0.213D-03-0.111D-02
 Coeff-Com: -0.130D-02 0.140D-01-0.218D-02-0.921D-01 0.293D-01 0.105D+01
 Coeff:     -0.189D-05 0.137D-04 0.597D-04 0.781D-04-0.213D-03-0.111D-02
 Coeff:     -0.130D-02 0.140D-01-0.218D-02-0.921D-01 0.293D-01 0.105D+01
 Gap=     0.548 Goal=   None    Shift=    0.000
 RMSDP=1.46D-08 MaxDP=5.20D-07 DE=-1.14D-10 OVMax= 9.81D-07

 Cycle  13  Pass 1  IDiag  1:
 E= -282.948131533449     Delta-E=        0.000000000016 Rises=F Damp=F
 DIIS: error= 4.42D-08 at cycle  13 NSaved=  13.
 NSaved=13 IEnMin=12 EnMin= -282.948131533466     IErMin=13 ErrMin= 4.42D-08
 ErrMax= 4.42D-08  0.00D+00 EMaxC= 1.00D-01 BMatC= 2.83D-13 BMatP= 3.44D-12
 IDIUse=1 WtCom= 1.00D+00 WtEn= 0.00D+00
 Coeff-Com:  0.672D-07-0.135D-05-0.853D-05 0.375D-05 0.976D-04 0.718D-04
 Coeff-Com: -0.102D-02 0.188D-03 0.611D-02 0.671D-02-0.987D-01-0.185D-01
 Coeff-Com:  0.111D+01
 Coeff:      0.672D-07-0.135D-05-0.853D-05 0.375D-05 0.976D-04 0.718D-04
 Coeff:     -0.102D-02 0.188D-03 0.611D-02 0.671D-02-0.987D-01-0.185D-01
 Coeff:      0.111D+01
 Gap=     0.548 Goal=   None    Shift=    0.000
 RMSDP=4.13D-09 MaxDP=9.79D-08 DE= 1.61D-11 OVMax= 2.93D-07

 SCF Done:  E(RHF) =  -282.948131533     A.U. after   13 cycles
            NFock= 13  Conv=0.41D-08     -V/T= 2.0013
 KE= 2.825880922701D+02 PE=-1.025913145167D+03 EE= 2.806365178828D+02
 Leave Link  502 at Sat Oct 15 15:16:48 2016, MaxMem= 13421772800 cpu:        75.1
 (Enter /share/pub/jeff/software/g09/g09/l801.exe)
 Windowed orbitals will be sorted by symmetry type.
 ExpMin= 1.03D-01 ExpMax= 1.53D+04 ExpMxC= 5.22D+02 IAcc=3 IRadAn=         5 AccDes= 0.00D+00
 HarFok:  IExCor=  205 AccDes= 0.00D+00 IRadAn=         5 IDoV=-2 UseB2=F ITyADJ=14
 ICtDFT= 12500011 ScaDFX=  1.000000  1.000000  1.000000  1.000000
 Largest valence mixing into a core orbital is  2.06D-04
 Largest core mixing into a valence orbital is  3.06D-05
 Range of M.O.s used for correlation:     6   220
 NBasis=   220 NAE=    20 NBE=    20 NFC=     5 NFV=     0
 NROrb=    215 NOA=    15 NOB=    15 NVA=   200 NVB=   200

 **** Warning!!: The largest alpha MO coefficient is  0.14326927D+02

 Leave Link  801 at Sat Oct 15 15:16:48 2016, MaxMem= 13421772800 cpu:         1.3
 (Enter /share/pub/jeff/software/g09/g09/l804.exe)
 Closed-shell transformation, MDV= 13421772800 ITran=4 ISComp=2.
 Semi-Direct transformation.
 ModeAB=           4 MOrb=            15 LenV=   13420465533
 LASXX=     35746231 LTotXX=    35746231 LenRXX=    72023863
 LTotAB=    36277632 MaxLAS=    79167300 LenRXY=           0
 NonZer=   107770094 LenScr=   162004992 LnRSAI=    79167300
 LnScr1=   119013376 LExtra=           0 Total=    432209531
 MaxDsk=          -1 SrtSym=           T ITran=            4
 DoSDTr:  NPSUse= 16
 JobTyp=0 Pass  1:  I=   1 to  15.
 (rs|ai) integrals will be sorted in core.
 Complete sort for first half transformation.
 First half transformation complete.
 Begin second half transformation for I=  10.
 Complete sort for second half transformation.
 Second half transformation complete.
 Spin components of T(2) and E(2):
     alpha-alpha T2 =       0.3531565547D-01 E2=     -0.1267979839D+00
     alpha-beta  T2 =       0.1965114679D+00 E2=     -0.7549188936D+00
     beta-beta   T2 =       0.3531565547D-01 E2=     -0.1267979839D+00
 ANorm=    0.1125674366D+01
 E2 =    -0.1008514861D+01 EUMP2 =    -0.28395664639492D+03
 Leave Link  804 at Sat Oct 15 15:16:56 2016, MaxMem= 13421772800 cpu:       115.8
 (Enter /share/pub/jeff/software/g09/g09/l913.exe)
 CIDS:  MDV= 13421772800.
 Frozen-core window:  NFC=   5 NFV=   0.
 IFCWin=0 IBDFC=1 NFBD=     0     0 NFCmp=     0     0 NFFFC=     0     0
 Using DD3R+UMP44R for 1st iteration, S=T.
 Using DD4RQ for 2nd and later iterations.
 Keep R2 and R3 ints in memory in symmetry-blocked form, NReq=445433445.
 FoFCou: FMM=F IPFlag=           0 FMFlag=           0 FMFlg1=           0
         NFxFlg=           0 DoJE=F BraDBF=F KetDBF=F FulRan=T
         wScrn=  0.000000 ICntrl=     600 IOpCl=  0 I1Cent=           0 NGrid=           0
         NMat0=    1 NMatS0=  24310 NMatT0=    0 NMatD0=    1 NMtDS0=    0 NMtDT0=    0
 Petite list used in FoFCou.
 CCSD(T)
 =======
 Iterations=  50 Convergence= 0.100D-06
 Iteration Nr.   1
 **********************
 DD1Dir will call FoFMem   1 times, MxPair=       240
 NAB=   120 NAA=     0 NBB=     0.
 MP4(R+Q)=  0.21586162D-01
 Maximum subspace dimension=  5
 Norm of the A-vectors is  1.4008668D+00 conv= 1.00D-05.
 RLE energy=       -0.9984787377
 E3=       -0.11960284D-01        EUMP3=      -0.28396860668D+03
 E4(DQ)=    0.12788562D-02        UMP4(DQ)=   -0.28396732782D+03
 E4(SDQ)=  -0.97069358D-02        UMP4(SDQ)=  -0.28397831361D+03
 VARIATIONAL ENERGIES WITH THE FIRST-ORDER WAVEFUNCTION:
 DE(Corr)= -0.99837812     E(Corr)=     -283.94650965    
 NORM(A)=   0.11259279D+01
 Iteration Nr.   2
 **********************
 DD1Dir will call FoFMem   1 times, MxPair=       240
 NAB=   120 NAA=     0 NBB=     0.
 Norm of the A-vectors is  5.1324359D-01 conv= 1.00D-05.
 RLE energy=       -1.0255444736
 DE(Corr)=  -1.0250790     E(CORR)=     -283.97321054     Delta=-2.67D-02
 NORM(A)=   0.11351166D+01
 Iteration Nr.   3
 **********************
 DD1Dir will call FoFMem   1 times, MxPair=       240
 NAB=   120 NAA=     0 NBB=     0.
 Norm of the A-vectors is  1.3906600D-01 conv= 1.00D-05.
 RLE energy=       -1.0270331631
 DE(Corr)=  -1.0247564     E(CORR)=     -283.97288796     Delta= 3.23D-04
 NORM(A)=   0.11375615D+01
 Iteration Nr.   4
 **********************
 DD1Dir will call FoFMem   1 times, MxPair=       240
 NAB=   120 NAA=     0 NBB=     0.
 Norm of the A-vectors is  5.5253519D-02 conv= 1.00D-05.
 RLE energy=       -1.0272116304
 DE(Corr)=  -1.0270307     E(CORR)=     -283.97516226     Delta=-2.27D-03
 NORM(A)=   0.11383019D+01
 Iteration Nr.   5
 **********************
 DD1Dir will call FoFMem   1 times, MxPair=       240
 NAB=   120 NAA=     0 NBB=     0.
 Norm of the A-vectors is  1.2091755D-02 conv= 1.00D-05.
 RLE energy=       -1.0273194324
 DE(Corr)=  -1.0272735     E(CORR)=     -283.97540501     Delta=-2.43D-04
 NORM(A)=   0.11385334D+01
 Iteration Nr.   6
 **********************
 DD1Dir will call FoFMem   1 times, MxPair=       240
 NAB=   120 NAA=     0 NBB=     0.
 Norm of the A-vectors is  5.6203036D-03 conv= 1.00D-05.
 RLE energy=       -1.0272962161
 DE(Corr)=  -1.0272953     E(CORR)=     -283.97542684     Delta=-2.18D-05
 NORM(A)=   0.11385578D+01
 Iteration Nr.   7
 **********************
 DD1Dir will call FoFMem   1 times, MxPair=       240
 NAB=   120 NAA=     0 NBB=     0.
 Norm of the A-vectors is  2.1429358D-03 conv= 1.00D-05.
 RLE energy=       -1.0272849173
 DE(Corr)=  -1.0272965     E(CORR)=     -283.97542807     Delta=-1.23D-06
 NORM(A)=   0.11385606D+01
 Iteration Nr.   8
 **********************
 DD1Dir will call FoFMem   1 times, MxPair=       240
 NAB=   120 NAA=     0 NBB=     0.
 Norm of the A-vectors is  7.6590334D-04 conv= 1.00D-05.
 RLE energy=       -1.0272936195
 DE(Corr)=  -1.0272945     E(CORR)=     -283.97542605     Delta= 2.02D-06
 NORM(A)=   0.11385646D+01
 Iteration Nr.   9
 **********************
 DD1Dir will call FoFMem   1 times, MxPair=       240
 NAB=   120 NAA=     0 NBB=     0.
 Norm of the A-vectors is  3.0368150D-04 conv= 1.00D-05.
 RLE energy=       -1.0272939553
 DE(Corr)=  -1.0272943     E(CORR)=     -283.97542579     Delta= 2.64D-07
 NORM(A)=   0.11385650D+01
 Iteration Nr.  10
 **********************
 DD1Dir will call FoFMem   1 times, MxPair=       240
 NAB=   120 NAA=     0 NBB=     0.
 Norm of the A-vectors is  1.1739596D-04 conv= 1.00D-05.
 RLE energy=       -1.0272947652
 DE(Corr)=  -1.0272947     E(CORR)=     -283.97542626     Delta=-4.78D-07
 NORM(A)=   0.11385656D+01
 Iteration Nr.  11
 **********************
 DD1Dir will call FoFMem   1 times, MxPair=       240
 NAB=   120 NAA=     0 NBB=     0.
 Norm of the A-vectors is  5.9858253D-05 conv= 1.00D-05.
 RLE energy=       -1.0272951758
 DE(Corr)=  -1.0272950     E(CORR)=     -283.97542657     Delta=-3.04D-07
 NORM(A)=   0.11385659D+01
 Iteration Nr.  12
 **********************
 DD1Dir will call FoFMem   1 times, MxPair=       240
 NAB=   120 NAA=     0 NBB=     0.
 Norm of the A-vectors is  2.6664792D-05 conv= 1.00D-05.
 RLE energy=       -1.0272952397
 DE(Corr)=  -1.0272952     E(CORR)=     -283.97542671     Delta=-1.46D-07
 NORM(A)=   0.11385660D+01
 Iteration Nr.  13
 **********************
 DD1Dir will call FoFMem   1 times, MxPair=       240
 NAB=   120 NAA=     0 NBB=     0.
 Norm of the A-vectors is  1.0401683D-05 conv= 1.00D-05.
 RLE energy=       -1.0272952631
 DE(Corr)=  -1.0272952     E(CORR)=     -283.97542678     Delta=-6.28D-08
 NORM(A)=   0.11385661D+01
 Iteration Nr.  14
 **********************
 DD1Dir will call FoFMem   1 times, MxPair=       240
 NAB=   120 NAA=     0 NBB=     0.
 Norm of the A-vectors is  5.2673089D-06 conv= 1.00D-05.
 RLE energy=       -1.0272952814
 DE(Corr)=  -1.0272953     E(CORR)=     -283.97542681     Delta=-3.08D-08
 NORM(A)=   0.11385661D+01
 CI/CC converged in   14 iterations to DelEn=-3.08D-08 Conv= 1.00D-07 ErrA1= 5.27D-06 Conv= 1.00D-05
 Largest amplitude= 4.29D-02
 IPart= 14 IA=   12   10.72% done.
 IPart= 15 IA=   23   20.84% done.
 IPart= 11 IA=   34   30.35% done.
 IPart=  5 IA=   46   40.03% done.
 IPart= 10 IA=   60   50.40% done.
 IPart=  9 IA=   75   60.43% done.
 IPart= 13 IA=   92   70.42% done.
 IPart= 14 IA=  112   80.32% done.
 IPart= 13 IA=  138   90.19% done.
 Time for triples=     3817.54 seconds.
 T4(CCSD)= -0.44296175D-01
 T5(CCSD)=  0.19930172D-02
 CCSD(T)= -0.28401772997D+03
 Discarding MO integrals.
 Leave Link  913 at Sat Oct 15 15:24:46 2016, MaxMem= 13421772800 cpu:      5684.8
 (Enter /share/pub/jeff/software/g09/g09/l601.exe)
 Copying SCF densities to generalized density rwf, IOpCl= 0 IROHF=0.

 **********************************************************************

            Population analysis using the SCF density.

 **********************************************************************

 Orbital symmetries:
       Occupied  (A') (A') (A') (A') (A') (A') (A') (A') (A') (A')
                 (A') (A') (A") (A") (A') (A') (A") (A") (A') (A')
       Virtual   (A') (A') (A") (A') (A") (A") (A') (A') (A') (A')
                 (A") (A') (A") (A') (A") (A') (A') (A") (A') (A')
                 (A') (A') (A') (A') (A") (A") (A') (A') (A") (A')
                 (A') (A") (A") (A') (A') (A") (A") (A') (A') (A')
                 (A") (A") (A') (A') (A") (A") (A') (A') (A") (A')
                 (A') (A") (A') (A') (A") (A') (A') (A') (A") (A')
                 (A") (A') (A') (A') (A") (A') (A") (A') (A') (A")
                 (A") (A') (A') (A') (A") (A') (A") (A') (A') (A')
                 (A") (A') (A') (A") (A') (A') (A") (A') (A") (A')
                 (A") (A') (A") (A') (A") (A') (A") (A') (A') (A")
                 (A") (A') (A") (A") (A') (A") (A') (A') (A") (A")
                 (A') (A') (A") (A') (A") (A') (A") (A") (A') (A')
                 (A') (A") (A') (A') (A") (A') (A") (A') (A") (A')
                 (A') (A") (A') (A') (A') (A") (A") (A") (A') (A')
                 (A") (A") (A') (A') (A') (A') (A") (A') (A') (A")
                 (A') (A") (A') (A') (A') (A") (A") (A') (A") (A')
                 (A') (A') (A') (A") (A') (A') (A") (A') (A") (A')
                 (A") (A') (A') (A") (A") (A") (A') (A') (A") (A')
                 (A") (A') (A") (A') (A") (A') (A") (A') (A") (A")
                 (A') (A') (A') (A') (A') (A') (A') (A') (A') (A')
 The electronic state is 1-A'.
 Alpha  occ. eigenvalues --  -20.61478 -20.55192 -15.54798 -11.38373 -11.27575
 Alpha  occ. eigenvalues --   -1.47073  -1.36742  -1.19640  -0.97831  -0.81605
 Alpha  occ. eigenvalues --   -0.70918  -0.69883  -0.69573  -0.62969  -0.60195
 Alpha  occ. eigenvalues --   -0.58645  -0.53527  -0.48901  -0.46643  -0.41042
 Alpha virt. eigenvalues --    0.13761   0.15416   0.16694   0.18275   0.19448
 Alpha virt. eigenvalues --    0.25216   0.32434   0.33794   0.36183   0.41772
 Alpha virt. eigenvalues --    0.45346   0.46510   0.47102   0.50873   0.54252
 Alpha virt. eigenvalues --    0.55466   0.58138   0.59597   0.59687   0.64097
 Alpha virt. eigenvalues --    0.65173   0.68073   0.71111   0.72073   0.72118
 Alpha virt. eigenvalues --    0.74610   0.76173   0.80177   0.80495   0.81120
 Alpha virt. eigenvalues --    0.90292   0.90523   0.92829   0.92954   0.97123
 Alpha virt. eigenvalues --    1.00338   1.04270   1.08527   1.10895   1.15096
 Alpha virt. eigenvalues --    1.20283   1.22336   1.24436   1.29426   1.31532
 Alpha virt. eigenvalues --    1.35681   1.37332   1.38545   1.39417   1.44601
 Alpha virt. eigenvalues --    1.49011   1.50937   1.51077   1.53960   1.58790
 Alpha virt. eigenvalues --    1.63673   1.69788   1.72442   1.79219   1.80867
 Alpha virt. eigenvalues --    1.82501   1.87678   1.92495   1.93583   1.99887
 Alpha virt. eigenvalues --    2.00848   2.04354   2.12955   2.22136   2.27407
 Alpha virt. eigenvalues --    2.30881   2.32311   2.39844   2.45118   2.45938
 Alpha virt. eigenvalues --    2.60249   2.61554   2.67840   2.76095   2.82801
 Alpha virt. eigenvalues --    2.83398   2.89873   2.94572   2.95876   2.99778
 Alpha virt. eigenvalues --    3.04148   3.09153   3.17397   3.19728   3.22221
 Alpha virt. eigenvalues --    3.24531   3.25881   3.26055   3.28847   3.35137
 Alpha virt. eigenvalues --    3.37854   3.40341   3.42144   3.46373   3.48926
 Alpha virt. eigenvalues --    3.56599   3.58910   3.59216   3.62598   3.63777
 Alpha virt. eigenvalues --    3.65992   3.68320   3.71646   3.72865   3.76509
 Alpha virt. eigenvalues --    3.78110   3.80125   3.85572   3.87368   3.88463
 Alpha virt. eigenvalues --    3.93226   3.93286   3.95576   3.97927   4.02831
 Alpha virt. eigenvalues --    4.06435   4.14339   4.14436   4.17505   4.18611
 Alpha virt. eigenvalues --    4.20077   4.24687   4.25326   4.27916   4.34836
 Alpha virt. eigenvalues --    4.38650   4.41081   4.41918   4.48473   4.52928
 Alpha virt. eigenvalues --    4.53005   4.54684   4.61027   4.61330   4.66287
 Alpha virt. eigenvalues --    4.70046   4.72104   4.75340   4.81863   4.87024
 Alpha virt. eigenvalues --    4.90688   5.05206   5.10023   5.15808   5.22023
 Alpha virt. eigenvalues --    5.24014   5.30453   5.34761   5.35383   5.49559
 Alpha virt. eigenvalues --    5.50693   5.57694   5.59855   5.60972   5.64941
 Alpha virt. eigenvalues --    5.67542   5.70186   5.77666   5.85839   5.87086
 Alpha virt. eigenvalues --    5.95826   5.96884   6.03664   6.09042   6.16873
 Alpha virt. eigenvalues --    6.17590   6.21629   6.31886   6.40367   6.48661
 Alpha virt. eigenvalues --    6.53809   6.56441   6.66162   6.71852   6.73091
 Alpha virt. eigenvalues --    6.85133   6.92992   6.97204   6.99698   7.05642
 Alpha virt. eigenvalues --    7.16855   7.24627   7.25074   7.29589   7.38284
 Alpha virt. eigenvalues --    7.38965   7.55267   7.67933   7.77969   7.94956
 Alpha virt. eigenvalues --    9.64821  12.83218  12.88498  13.76697  14.04134
          Condensed to atoms (all electrons):
               1          2          3          4          5          6
     1  C    4.255236   0.422450   0.757422  -0.030408   0.345356  -0.074389
     2  O    0.422450   7.741631  -0.089771   0.322362  -0.068674   0.003382
     3  O    0.757422  -0.089771   7.795793   0.007667  -0.083725  -0.001417
     4  H   -0.030408   0.322362   0.007667   0.444175   0.009506  -0.000794
     5  C    0.345356  -0.068674  -0.083725   0.009506   4.795074   0.354183
     6  N   -0.074389   0.003382  -0.001417  -0.000794   0.354183   6.329408
     7  H   -0.033066   0.003036   0.000404  -0.000714   0.415952  -0.024946
     8  H   -0.033066   0.003036   0.000404  -0.000714   0.415952  -0.024946
     9  H   -0.003423   0.000217   0.005321  -0.000062  -0.041372   0.396538
    10  H   -0.003423   0.000217   0.005321  -0.000062  -0.041372   0.396538
               7          8          9         10
     1  C   -0.033066  -0.033066  -0.003423  -0.003423
     2  O    0.003036   0.003036   0.000217   0.000217
     3  O    0.000404   0.000404   0.005321   0.005321
     4  H   -0.000714  -0.000714  -0.000062  -0.000062
     5  C    0.415952   0.415952  -0.041372  -0.041372
     6  N   -0.024946  -0.024946   0.396538   0.396538
     7  H    0.544323  -0.028300  -0.007280   0.007405
     8  H   -0.028300   0.544323   0.007405  -0.007280
     9  H   -0.007280   0.007405   0.538948  -0.044804
    10  H    0.007405  -0.007280  -0.044804   0.538948
 Mulliken charges:
               1
     1  C    0.397311
     2  O   -0.337888
     3  O   -0.397422
     4  H    0.249043
     5  C   -0.100881
     6  N   -0.353558
     7  H    0.123185
     8  H    0.123185
     9  H    0.148513
    10  H    0.148513
 Sum of Mulliken charges =  -0.00000
 Mulliken charges with hydrogens summed into heavy atoms:
               1
     1  C    0.397311
     2  O   -0.088845
     3  O   -0.397422
     5  C    0.145488
     6  N   -0.056533
 Electronic spatial extent (au):  <R**2>=            419.2465
 Charge=             -0.0000 electrons
 Dipole moment (field-independent basis, Debye):
    X=              1.0135    Y=              0.6976    Z=              0.0000  Tot=              1.2303
 Quadrupole moment (field-independent basis, Debye-Ang):
   XX=            -32.8255   YY=            -29.7199   ZZ=            -27.0610
   XY=              2.7682   XZ=             -0.0000   YZ=             -0.0000
 Traceless Quadrupole moment (field-independent basis, Debye-Ang):
   XX=             -2.9567   YY=              0.1489   ZZ=              2.8078
   XY=              2.7682   XZ=             -0.0000   YZ=             -0.0000
 Octapole moment (field-independent basis, Debye-Ang**2):
  XXX=             -0.6135  YYY=             39.9637  ZZZ=             -0.0000  XYY=             -1.1488
  XXY=             -7.9402  XXZ=              0.0000  XZZ=             -1.3542  YZZ=             -1.5652
  YYZ=              0.0000  XYZ=              0.0000
 Hexadecapole moment (field-independent basis, Debye-Ang**3):
 XXXX=           -146.0254 YYYY=           -325.0469 ZZZZ=            -33.4736 XXXY=            -13.9690
 XXXZ=             -0.0000 YYYX=             -1.3245 YYYZ=             -0.0000 ZZZX=              0.0000
 ZZZY=              0.0000 XXYY=            -75.7403 XXZZ=            -26.3583 YYZZ=            -55.0221
 XXYZ=             -0.0000 YYXZ=             -0.0000 ZZXY=             -3.5890
 N-N= 1.797404034807D+02 E-N=-1.025913143045D+03  KE= 2.825880922701D+02
 Symmetry A'   KE= 2.697798093227D+02
 Symmetry A"   KE= 1.280828294737D+01
 Leave Link  601 at Sat Oct 15 15:24:46 2016, MaxMem= 13421772800 cpu:         2.2
 (Enter /share/pub/jeff/software/g09/g09/l9999.exe)
 1\1\GINC-R01N04\SP\RCCSD(T)-FC\CC-pVTZ\C2H5N1O2\JIANGZHONGMING\15-Oct-
 2016\0\\#P CCSD(T) cc-pVTZ\\start best geom PCCP paper\\0,1\C\O,1,1.34
 86\O,1,1.2025,2,123.0718\H,2,0.9651,1,107.1011,3,0.,0\C,1,1.5141,3,125
 .77,2,180.,0\N,5,1.442,1,115.3802,3,0.,0\H,5,1.0905,1,107.3709,3,-123.
 1312,0\H,5,1.0905,1,107.3709,3,123.1312,0\H,6,1.0109,5,110.5508,1,-58.
 6741,0\H,6,1.0109,5,110.5508,1,58.6741,0\\Version=ES64L-G09RevE.01\Sta
 te=1-A'\HF=-282.9481315\MP2=-283.9566464\MP3=-283.9686067\MP4D=-283.98
 8914\MP4DQ=-283.9673278\MP4SDQ=-283.9783136\CCSD=-283.9754268\CCSD(T)=
 -284.01773\RMSD=4.135e-09\PG=CS [SG(C2H1N1O2),X(H4)]\\@


 A MAN BEGINS CUTTING HIS WISDOM TEETH THE 1ST
 TIME HE BITES OFF MORE THAN HE CAN CHEW.
 Job cpu time:       0 days  1 hours 38 minutes 14.9 seconds.
 File lengths (MBytes):  RWF=   3580 Int=      0 D2E=      0 Chk=      8 Scr=      8
 Normal termination of Gaussian 09 at Sat Oct 15 15:24:47 2016.
