 Entering Gaussian System, Link 0=g09
 Input=VIII_gtc_Best_geom_CCSDT_VTZ.gjf
 Output=VIII_gtc_Best_geom_CCSDT_VTZ.log
 Initial command:
 /public/home/users/shu004/g09/l1.exe "/public/home/users/shu004/scratch/Gau-17431.inp" -scrdir="/public/home/users/shu004/scratch/"
 Entering Link 1 = /public/home/users/shu004/g09/l1.exe PID=     17432.
  
 Copyright (c) 1988,1990,1992,1993,1995,1998,2003,2009,2013,
            Gaussian, Inc.  All Rights Reserved.
  
 This is part of the Gaussian(R) 09 program.  It is based on
 the Gaussian(R) 03 system (copyright 2003, Gaussian, Inc.),
 the Gaussian(R) 98 system (copyright 1998, Gaussian, Inc.),
 the Gaussian(R) 94 system (copyright 1995, Gaussian, Inc.),
 the Gaussian 92(TM) system (copyright 1992, Gaussian, Inc.),
 the Gaussian 90(TM) system (copyright 1990, Gaussian, Inc.),
 the Gaussian 88(TM) system (copyright 1988, Gaussian, Inc.),
 the Gaussian 86(TM) system (copyright 1986, Carnegie Mellon
 University), and the Gaussian 82(TM) system (copyright 1983,
 Carnegie Mellon University). Gaussian is a federally registered
 trademark of Gaussian, Inc.
  
 This software contains proprietary and confidential information,
 including trade secrets, belonging to Gaussian, Inc.
  
 This software is provided under written license and may be
 used, copied, transmitted, or stored only in accord with that
 written license.
  
 The following legend is applicable only to US Government
 contracts under FAR:
  
                    RESTRICTED RIGHTS LEGEND
  
 Use, reproduction and disclosure by the US Government is
 subject to restrictions as set forth in subparagraphs (a)
 and (c) of the Commercial Computer Software - Restricted
 Rights clause in FAR 52.227-19.
  
 Gaussian, Inc.
 340 Quinnipiac St., Bldg. 40, Wallingford CT 06492
  
  
 ---------------------------------------------------------------
 Warning -- This program may not be used in any manner that
 competes with the business of Gaussian, Inc. or will provide
 assistance to any competitor of Gaussian, Inc.  The licensee
 of this program is prohibited from giving any competitor of
 Gaussian, Inc. access to this program.  By using this program,
 the user acknowledges that Gaussian, Inc. is engaged in the
 business of creating and licensing software in the field of
 computational chemistry and represents and warrants to the
 licensee that it is not a competitor of Gaussian, Inc. and that
 it will not use this program in any manner prohibited above.
 ---------------------------------------------------------------
  

 Cite this work as:
 Gaussian 09, Revision D.01,
 M. J. Frisch, G. W. Trucks, H. B. Schlegel, G. E. Scuseria, 
 M. A. Robb, J. R. Cheeseman, G. Scalmani, V. Barone, B. Mennucci, 
 G. A. Petersson, H. Nakatsuji, M. Caricato, X. Li, H. P. Hratchian, 
 A. F. Izmaylov, J. Bloino, G. Zheng, J. L. Sonnenberg, M. Hada, 
 M. Ehara, K. Toyota, R. Fukuda, J. Hasegawa, M. Ishida, T. Nakajima, 
 Y. Honda, O. Kitao, H. Nakai, T. Vreven, J. A. Montgomery, Jr., 
 J. E. Peralta, F. Ogliaro, M. Bearpark, J. J. Heyd, E. Brothers, 
 K. N. Kudin, V. N. Staroverov, T. Keith, R. Kobayashi, J. Normand, 
 K. Raghavachari, A. Rendell, J. C. Burant, S. S. Iyengar, J. Tomasi, 
 M. Cossi, N. Rega, J. M. Millam, M. Klene, J. E. Knox, J. B. Cross, 
 V. Bakken, C. Adamo, J. Jaramillo, R. Gomperts, R. E. Stratmann, 
 O. Yazyev, A. J. Austin, R. Cammi, C. Pomelli, J. W. Ochterski, 
 R. L. Martin, K. Morokuma, V. G. Zakrzewski, G. A. Voth, 
 P. Salvador, J. J. Dannenberg, S. Dapprich, A. D. Daniels, 
 O. Farkas, J. B. Foresman, J. V. Ortiz, J. Cioslowski, 
 and D. J. Fox, Gaussian, Inc., Wallingford CT, 2013.
 
 ******************************************
 Gaussian 09:  ES64L-G09RevD.01 24-Apr-2013
                26-Dec-2016 
 ******************************************
 %chk=VIII_gtc_Best_geom_CCSDT_VTZ.chk
 %nprocshared=12
 Will use up to   12 processors via shared memory.
 %mem=30GB
 ------------------
 #P CCSD(T) cc-pVTZ
 ------------------
 1/38=1/1;
 2/12=2,17=6,18=5,40=1/2;
 3/5=16,6=1,11=9,16=1,25=1,30=1/1,2,3;
 4//1;
 5/5=2,38=5/2;
 8/6=4,9=120000,10=1/1,4;
 9/5=7,14=2/13;
 6/7=2,8=2,9=2,10=2/1;
 99/5=1,9=1/99;
 Leave Link    1 at Mon Dec 26 21:16:45 2016, MaxMem=  4026531840 cpu:         1.4
 (Enter /public/home/users/shu004/g09/l101.exe)
 -------
 VIII_SP
 -------
 Symbolic Z-matrix:
 Charge =  0 Multiplicity = 1
 C
 O                    1    B1
 O                    1    B2       2    A1
 H                    2    B3       1    A2       3    D1       0
 C                    1    B4       3    A3       2    D2       0
 N                    5    B5       1    A4       3    D3       0
 H                    5    B6       1    A5       3    D4       0
 H                    5    B7       1    A6       3    D5       0
 H                    6    B8       5    A7       1    D6       0
 H                    6    B9       5    A8       1    D7       0
       Variables:
  B1                    1.35064                  
  B2                    1.19653                  
  B3                    0.96165                  
  B4                    1.51406                  
  B5                    1.44636                  
  B6                    1.09684                  
  B7                    1.09378                  
  B8                    1.00807                  
  B9                    1.0126                   
  A1                  120.39321                  
  A2                  110.57402                  
  A3                  124.09641                  
  A4                  110.35148                  
  A5                  106.10493                  
  A6                  108.59165                  
  A7                  112.08781                  
  A8                  109.66844                  
  D1                 -178.19299                  
  D2                  178.41709                  
  D3                   14.53424                  
  D4                 -109.33023                  
  D5                  135.75133                  
  D6                 -144.9572                   
  D7                  -23.85712                  
 
 NAtoms=     10 NQM=       10 NQMF=       0 NMMI=      0 NMMIF=      0
                NMic=       0 NMicF=      0.
                    Isotopes and Nuclear Properties:
 (Nuclear quadrupole moments (NQMom) in fm**2, nuclear magnetic moments (NMagM)
  in nuclear magnetons)

  Atom         1           2           3           4           5           6           7           8           9          10
 IAtWgt=          12          16          16           1          12          14           1           1           1           1
 AtmWgt=  12.0000000  15.9949146  15.9949146   1.0078250  12.0000000  14.0030740   1.0078250   1.0078250   1.0078250   1.0078250
 NucSpn=           0           0           0           1           0           2           1           1           1           1
 AtZEff=   0.0000000   0.0000000   0.0000000   0.0000000   0.0000000   0.0000000   0.0000000   0.0000000   0.0000000   0.0000000
 NQMom=    0.0000000   0.0000000   0.0000000   0.0000000   0.0000000   2.0440000   0.0000000   0.0000000   0.0000000   0.0000000
 NMagM=    0.0000000   0.0000000   0.0000000   2.7928460   0.0000000   0.4037610   2.7928460   2.7928460   2.7928460   2.7928460
 AtZNuc=   6.0000000   8.0000000   8.0000000   1.0000000   6.0000000   7.0000000   1.0000000   1.0000000   1.0000000   1.0000000
 Leave Link  101 at Mon Dec 26 21:16:45 2016, MaxMem=  4026531840 cpu:         1.6
 (Enter /public/home/users/shu004/g09/l202.exe)
                          Input orientation:                          
 ---------------------------------------------------------------------
 Center     Atomic      Atomic             Coordinates (Angstroms)
 Number     Number       Type             X           Y           Z
 ---------------------------------------------------------------------
      1          6           0        0.000000    0.000000    0.000000
      2          8           0        0.000000    0.000000    1.350639
      3          8           0        1.032094    0.000000   -0.605362
      4          1           0       -0.899872   -0.028390    1.688581
      5          6           0       -1.366212    0.034634   -0.651657
      6          7           0       -1.259382   -0.273721   -2.060724
      7          1           0       -1.777130    1.030203   -0.444170
      8          1           0       -2.010889   -0.691992   -0.148913
      9          1           0       -1.923118    0.245663   -2.613800
     10          1           0       -0.324127   -0.061947   -2.385997
 ---------------------------------------------------------------------
                    Distance matrix (angstroms):
                    1          2          3          4          5
     1  C    0.000000
     2  O    1.350639   0.000000
     3  O    1.196529   2.211596   0.000000
     4  H    1.913604   0.961655   2.999245   0.000000
     5  C    1.514065   2.424237   2.399003   2.387082   0.000000
     6  N    2.430545   3.646692   2.728345   3.774483   1.446363
     7  H    2.101617   2.727792   2.996505   2.537484   1.096842
     8  H    2.131831   2.602150   3.153878   2.247468   1.093775
     9  H    3.254333   4.413106   3.581543   4.430871   2.050532
    10  H    2.408709   3.751179   2.239160   4.115191   2.025638
                    6          7          8          9         10
     6  N    0.000000
     7  H    2.140450   0.000000
     8  H    2.096362   1.762889   0.000000
     9  H    1.008066   2.311733   2.638668   0.000000
    10  H    1.012597   2.659831   2.871701   1.644168   0.000000
 Stoichiometry    C2H5NO2
 Framework group  C1[X(C2H5NO2)]
 Deg. of freedom    24
 Full point group                 C1      NOp   1
 Largest Abelian subgroup         C1      NOp   1
 Largest concise Abelian subgroup C1      NOp   1
                         Standard orientation:                         
 ---------------------------------------------------------------------
 Center     Atomic      Atomic             Coordinates (Angstroms)
 Number     Number       Type             X           Y           Z
 ---------------------------------------------------------------------
      1          6           0        0.546143    0.148212    0.012628
      2          8           0        1.729714   -0.499968   -0.044362
      3          8           0        0.511357    1.343991    0.036745
      4          1           0        1.592593   -1.450896   -0.085742
      5          6           0       -0.679769   -0.738038    0.076616
      6          7           0       -1.874850    0.037759   -0.172157
      7          1           0       -0.657798   -1.217003    1.063110
      8          1           0       -0.576213   -1.530916   -0.669685
      9          1           0       -2.658726   -0.288884    0.371019
     10          1           0       -1.702724    1.010149    0.051861
 ---------------------------------------------------------------------
 Rotational constants (GHZ):     10.3415311      4.0158603      2.9691541
 Leave Link  202 at Mon Dec 26 21:16:45 2016, MaxMem=  4026531840 cpu:         0.9
 (Enter /public/home/users/shu004/g09/l301.exe)
 Standard basis: CC-pVTZ (5D, 7F)
 Ernie: Thresh=  0.10000D-02 Tol=  0.10000D-05 Strict=F.
 Ernie:  15 primitive shells out of 170 were deleted.
 There are   250 symmetry adapted cartesian basis functions of A   symmetry.
 There are   220 symmetry adapted basis functions of A   symmetry.
   220 basis functions,   345 primitive gaussians,   250 cartesian basis functions
    20 alpha electrons       20 beta electrons
       nuclear repulsion energy       180.5379058292 Hartrees.
 IExCor=    0 DFT=F Ex=HF Corr=None ExCW=0 ScaHFX=  1.000000
 ScaDFX=  1.000000  1.000000  1.000000  1.000000 ScalE2=  1.000000  1.000000
 IRadAn=      0 IRanWt=     -1 IRanGd=            0 ICorTp=0 IEmpDi=  4
 NAtoms=   10 NActive=   10 NUniq=   10 SFac= 1.00D+00 NAtFMM=   60 NAOKFM=F Big=F
 Integral buffers will be    131072 words long.
 Raffenetti 1 integral format.
 Two-electron integral symmetry is turned on.
 Leave Link  301 at Mon Dec 26 21:16:45 2016, MaxMem=  4026531840 cpu:         0.9
 (Enter /public/home/users/shu004/g09/l302.exe)
 NPDir=0 NMtPBC=     1 NCelOv=     1 NCel=       1 NClECP=     1 NCelD=      1
         NCelK=      1 NCelE2=     1 NClLst=     1 CellRange=     0.0.
 One-electron integrals computed using PRISM.
 NBasis=   220 RedAO= T EigKep=  4.58D-04  NBF=   220
 NBsUse=   220 1.00D-06 EigRej= -1.00D+00 NBFU=   220
 Leave Link  302 at Mon Dec 26 21:16:46 2016, MaxMem=  4026531840 cpu:         3.2
 (Enter /public/home/users/shu004/g09/l303.exe)
 DipDrv:  MaxL=1.
 Leave Link  303 at Mon Dec 26 21:16:46 2016, MaxMem=  4026531840 cpu:         1.1
 (Enter /public/home/users/shu004/g09/l401.exe)
 ExpMin= 1.03D-01 ExpMax= 1.53D+04 ExpMxC= 5.22D+02 IAcc=1 IRadAn=         1 AccDes= 0.00D+00
 Harris functional with IExCor=  205 and IRadAn=       1 diagonalized for initial guess.
 HarFok:  IExCor=  205 AccDes= 0.00D+00 IRadAn=         1 IDoV= 1 UseB2=F ITyADJ=14
 ICtDFT=  3500011 ScaDFX=  1.000000  1.000000  1.000000  1.000000
 FoFCou: FMM=F IPFlag=           0 FMFlag=      100000 FMFlg1=           0
         NFxFlg=           0 DoJE=T BraDBF=F KetDBF=T FulRan=T
         wScrn=  0.000000 ICntrl=     500 IOpCl=  0 I1Cent=   200000004 NGrid=           0
         NMat0=    1 NMatS0=      1 NMatT0=    0 NMatD0=    1 NMtDS0=    0 NMtDT0=    0
 Petite list used in FoFCou.
 Harris En= -283.221988827799    
 JPrj=0 DoOrth=F DoCkMO=F.
 Leave Link  401 at Mon Dec 26 21:16:47 2016, MaxMem=  4026531840 cpu:         4.4
 (Enter /public/home/users/shu004/g09/l502.exe)
 Closed shell SCF:
 Using DIIS extrapolation, IDIIS=  1040.
 Integral symmetry usage will be decided dynamically.
 Keep R1 ints in memory in canonical form, NReq=303617575.
 IVT=      210870 IEndB=      210870 NGot=  4026531840 MDV=  3730820766
 LenX=  3730820766 LenY=  3730757825
 Requested convergence on RMS density matrix=1.00D-08 within 128 cycles.
 Requested convergence on MAX density matrix=1.00D-06.
 Requested convergence on             energy=1.00D-06.
 No special actions if energy rises.
 FoFCou: FMM=F IPFlag=           0 FMFlag=           0 FMFlg1=           0
         NFxFlg=           0 DoJE=F BraDBF=F KetDBF=F FulRan=T
         wScrn=  0.000000 ICntrl=     600 IOpCl=  0 I1Cent=           0 NGrid=           0
         NMat0=    1 NMatS0=  24310 NMatT0=    0 NMatD0=    1 NMtDS0=    0 NMtDT0=    0
 Symmetry not used in FoFCou.

 Cycle   1  Pass 1  IDiag  1:
 E= -282.690913827310    
 DIIS: error= 2.44D-02 at cycle   1 NSaved=   1.
 NSaved= 1 IEnMin= 1 EnMin= -282.690913827310     IErMin= 1 ErrMin= 2.44D-02
 ErrMax= 2.44D-02  0.00D+00 EMaxC= 1.00D-01 BMatC= 5.83D-01 BMatP= 5.83D-01
 IDIUse=3 WtCom= 7.56D-01 WtEn= 2.44D-01
 Coeff-Com:  0.100D+01
 Coeff-En:   0.100D+01
 Coeff:      0.100D+01
 Gap=     0.515 Goal=   None    Shift=    0.000
 GapD=    0.515 DampG=2.000 DampE=0.500 DampFc=1.0000 IDamp=-1.
 RMSDP=2.07D-03 MaxDP=7.66D-02              OVMax= 1.26D-01

 Cycle   2  Pass 1  IDiag  1:
 E= -282.877919121948     Delta-E=       -0.187005294638 Rises=F Damp=F
 DIIS: error= 1.46D-02 at cycle   2 NSaved=   2.
 NSaved= 2 IEnMin= 2 EnMin= -282.877919121948     IErMin= 2 ErrMin= 1.46D-02
 ErrMax= 1.46D-02  0.00D+00 EMaxC= 1.00D-01 BMatC= 8.50D-02 BMatP= 5.83D-01
 IDIUse=3 WtCom= 8.54D-01 WtEn= 1.46D-01
 Coeff-Com:  0.211D+00 0.789D+00
 Coeff-En:   0.000D+00 0.100D+01
 Coeff:      0.180D+00 0.820D+00
 Gap=     0.556 Goal=   None    Shift=    0.000
 RMSDP=1.10D-03 MaxDP=4.94D-02 DE=-1.87D-01 OVMax= 5.34D-02

 Cycle   3  Pass 1  IDiag  1:
 E= -282.928126872168     Delta-E=       -0.050207750220 Rises=F Damp=F
 DIIS: error= 5.34D-03 at cycle   3 NSaved=   3.
 NSaved= 3 IEnMin= 3 EnMin= -282.928126872168     IErMin= 3 ErrMin= 5.34D-03
 ErrMax= 5.34D-03  0.00D+00 EMaxC= 1.00D-01 BMatC= 1.15D-02 BMatP= 8.50D-02
 IDIUse=3 WtCom= 9.47D-01 WtEn= 5.34D-02
 Coeff-Com: -0.234D-01 0.239D+00 0.784D+00
 Coeff-En:   0.000D+00 0.000D+00 0.100D+01
 Coeff:     -0.221D-01 0.227D+00 0.795D+00
 Gap=     0.525 Goal=   None    Shift=    0.000
 RMSDP=2.21D-04 MaxDP=8.94D-03 DE=-5.02D-02 OVMax= 2.81D-02

 Cycle   4  Pass 1  IDiag  1:
 E= -282.935382887224     Delta-E=       -0.007256015056 Rises=F Damp=F
 DIIS: error= 1.24D-03 at cycle   4 NSaved=   4.
 NSaved= 4 IEnMin= 4 EnMin= -282.935382887224     IErMin= 4 ErrMin= 1.24D-03
 ErrMax= 1.24D-03  0.00D+00 EMaxC= 1.00D-01 BMatC= 4.34D-04 BMatP= 1.15D-02
 IDIUse=3 WtCom= 9.88D-01 WtEn= 1.24D-02
 Coeff-Com: -0.117D-01 0.528D-01 0.254D+00 0.705D+00
 Coeff-En:   0.000D+00 0.000D+00 0.000D+00 0.100D+01
 Coeff:     -0.115D-01 0.522D-01 0.251D+00 0.708D+00
 Gap=     0.522 Goal=   None    Shift=    0.000
 RMSDP=6.49D-05 MaxDP=2.40D-03 DE=-7.26D-03 OVMax= 5.24D-03

 Cycle   5  Pass 1  IDiag  1:
 E= -282.935749220973     Delta-E=       -0.000366333749 Rises=F Damp=F
 DIIS: error= 5.61D-04 at cycle   5 NSaved=   5.
 NSaved= 5 IEnMin= 5 EnMin= -282.935749220973     IErMin= 5 ErrMin= 5.61D-04
 ErrMax= 5.61D-04  0.00D+00 EMaxC= 1.00D-01 BMatC= 2.70D-05 BMatP= 4.34D-04
 IDIUse=3 WtCom= 9.94D-01 WtEn= 5.61D-03
 Coeff-Com:  0.237D-02-0.244D-01-0.865D-01 0.443D-02 0.110D+01
 Coeff-En:   0.000D+00 0.000D+00 0.000D+00 0.000D+00 0.100D+01
 Coeff:      0.236D-02-0.243D-01-0.860D-01 0.440D-02 0.110D+01
 Gap=     0.523 Goal=   None    Shift=    0.000
 RMSDP=3.57D-05 MaxDP=1.28D-03 DE=-3.66D-04 OVMax= 3.86D-03

 Cycle   6  Pass 1  IDiag  1:
 E= -282.935803692072     Delta-E=       -0.000054471099 Rises=F Damp=F
 DIIS: error= 1.13D-04 at cycle   6 NSaved=   6.
 NSaved= 6 IEnMin= 6 EnMin= -282.935803692072     IErMin= 6 ErrMin= 1.13D-04
 ErrMax= 1.13D-04  0.00D+00 EMaxC= 1.00D-01 BMatC= 3.97D-06 BMatP= 2.70D-05
 IDIUse=3 WtCom= 9.99D-01 WtEn= 1.13D-03
 Coeff-Com:  0.153D-02-0.102D-01-0.401D-01-0.784D-01 0.200D+00 0.927D+00
 Coeff-En:   0.000D+00 0.000D+00 0.000D+00 0.000D+00 0.000D+00 0.100D+01
 Coeff:      0.153D-02-0.102D-01-0.401D-01-0.783D-01 0.200D+00 0.927D+00
 Gap=     0.523 Goal=   None    Shift=    0.000
 RMSDP=1.39D-05 MaxDP=5.21D-04 DE=-5.45D-05 OVMax= 1.11D-03

 Cycle   7  Pass 1  IDiag  1:
 E= -282.935811068162     Delta-E=       -0.000007376090 Rises=F Damp=F
 DIIS: error= 7.77D-05 at cycle   7 NSaved=   7.
 NSaved= 7 IEnMin= 7 EnMin= -282.935811068162     IErMin= 7 ErrMin= 7.77D-05
 ErrMax= 7.77D-05  0.00D+00 EMaxC= 1.00D-01 BMatC= 5.32D-07 BMatP= 3.97D-06
 IDIUse=1 WtCom= 1.00D+00 WtEn= 0.00D+00
 Coeff-Com: -0.260D-03 0.288D-02 0.125D-01-0.942D-02-0.130D+00-0.109D-01
 Coeff-Com:  0.114D+01
 Coeff:     -0.260D-03 0.288D-02 0.125D-01-0.942D-02-0.130D+00-0.109D-01
 Coeff:      0.114D+01
 Gap=     0.523 Goal=   None    Shift=    0.000
 RMSDP=5.26D-06 MaxDP=1.49D-04 DE=-7.38D-06 OVMax= 7.40D-04

 Cycle   8  Pass 1  IDiag  1:
 E= -282.935812438005     Delta-E=       -0.000001369844 Rises=F Damp=F
 DIIS: error= 1.46D-05 at cycle   8 NSaved=   8.
 NSaved= 8 IEnMin= 8 EnMin= -282.935812438005     IErMin= 8 ErrMin= 1.46D-05
 ErrMax= 1.46D-05  0.00D+00 EMaxC= 1.00D-01 BMatC= 7.33D-08 BMatP= 5.32D-07
 IDIUse=1 WtCom= 1.00D+00 WtEn= 0.00D+00
 Coeff-Com: -0.195D-03 0.129D-02 0.524D-02 0.628D-02-0.149D-01-0.119D+00
 Coeff-Com: -0.632D-01 0.118D+01
 Coeff:     -0.195D-03 0.129D-02 0.524D-02 0.628D-02-0.149D-01-0.119D+00
 Coeff:     -0.632D-01 0.118D+01
 Gap=     0.524 Goal=   None    Shift=    0.000
 RMSDP=2.09D-06 MaxDP=6.30D-05 DE=-1.37D-06 OVMax= 2.89D-04

 Cycle   9  Pass 1  IDiag  1:
 E= -282.935812631461     Delta-E=       -0.000000193456 Rises=F Damp=F
 DIIS: error= 7.05D-06 at cycle   9 NSaved=   9.
 NSaved= 9 IEnMin= 9 EnMin= -282.935812631461     IErMin= 9 ErrMin= 7.05D-06
 ErrMax= 7.05D-06  0.00D+00 EMaxC= 1.00D-01 BMatC= 9.70D-09 BMatP= 7.33D-08
 IDIUse=1 WtCom= 1.00D+00 WtEn= 0.00D+00
 Coeff-Com: -0.754D-05-0.110D-03-0.518D-03 0.170D-02 0.162D-01-0.232D-01
 Coeff-Com: -0.160D+00 0.230D+00 0.936D+00
 Coeff:     -0.754D-05-0.110D-03-0.518D-03 0.170D-02 0.162D-01-0.232D-01
 Coeff:     -0.160D+00 0.230D+00 0.936D+00
 Gap=     0.523 Goal=   None    Shift=    0.000
 RMSDP=6.18D-07 MaxDP=1.87D-05 DE=-1.93D-07 OVMax= 8.59D-05

 Cycle  10  Pass 1  IDiag  1:
 E= -282.935812650999     Delta-E=       -0.000000019538 Rises=F Damp=F
 DIIS: error= 1.85D-06 at cycle  10 NSaved=  10.
 NSaved=10 IEnMin=10 EnMin= -282.935812650999     IErMin=10 ErrMin= 1.85D-06
 ErrMax= 1.85D-06  0.00D+00 EMaxC= 1.00D-01 BMatC= 9.21D-10 BMatP= 9.70D-09
 IDIUse=1 WtCom= 1.00D+00 WtEn= 0.00D+00
 Coeff-Com:  0.267D-04-0.187D-03-0.714D-03-0.128D-02 0.261D-02 0.160D-01
 Coeff-Com:  0.132D-01-0.171D+00-0.170D-01 0.116D+01
 Coeff:      0.267D-04-0.187D-03-0.714D-03-0.128D-02 0.261D-02 0.160D-01
 Coeff:      0.132D-01-0.171D+00-0.170D-01 0.116D+01
 Gap=     0.523 Goal=   None    Shift=    0.000
 RMSDP=2.31D-07 MaxDP=7.53D-06 DE=-1.95D-08 OVMax= 2.63D-05

 Cycle  11  Pass 1  IDiag  1:
 E= -282.935812653193     Delta-E=       -0.000000002194 Rises=F Damp=F
 DIIS: error= 4.42D-07 at cycle  11 NSaved=  11.
 NSaved=11 IEnMin=11 EnMin= -282.935812653193     IErMin=11 ErrMin= 4.42D-07
 ErrMax= 4.42D-07  0.00D+00 EMaxC= 1.00D-01 BMatC= 5.44D-11 BMatP= 9.21D-10
 IDIUse=1 WtCom= 1.00D+00 WtEn= 0.00D+00
 Coeff-Com:  0.767D-07 0.876D-05 0.686D-04-0.858D-04-0.913D-03 0.179D-03
 Coeff-Com:  0.941D-02-0.260D-02-0.626D-01-0.900D-01 0.115D+01
 Coeff:      0.767D-07 0.876D-05 0.686D-04-0.858D-04-0.913D-03 0.179D-03
 Coeff:      0.941D-02-0.260D-02-0.626D-01-0.900D-01 0.115D+01
 Gap=     0.523 Goal=   None    Shift=    0.000
 RMSDP=5.34D-08 MaxDP=1.52D-06 DE=-2.19D-09 OVMax= 3.98D-06

 Cycle  12  Pass 1  IDiag  1:
 E= -282.935812653298     Delta-E=       -0.000000000105 Rises=F Damp=F
 DIIS: error= 1.29D-07 at cycle  12 NSaved=  12.
 NSaved=12 IEnMin=12 EnMin= -282.935812653298     IErMin=12 ErrMin= 1.29D-07
 ErrMax= 1.29D-07  0.00D+00 EMaxC= 1.00D-01 BMatC= 3.36D-12 BMatP= 5.44D-11
 IDIUse=1 WtCom= 1.00D+00 WtEn= 0.00D+00
 Coeff-Com: -0.187D-05 0.131D-04 0.521D-04 0.850D-04-0.172D-03-0.118D-02
 Coeff-Com: -0.133D-02 0.137D-01 0.144D-02-0.845D-01-0.954D-02 0.108D+01
 Coeff:     -0.187D-05 0.131D-04 0.521D-04 0.850D-04-0.172D-03-0.118D-02
 Coeff:     -0.133D-02 0.137D-01 0.144D-02-0.845D-01-0.954D-02 0.108D+01
 Gap=     0.523 Goal=   None    Shift=    0.000
 RMSDP=1.42D-08 MaxDP=3.65D-07 DE=-1.05D-10 OVMax= 9.90D-07

 Cycle  13  Pass 1  IDiag  1:
 E= -282.935812653306     Delta-E=       -0.000000000008 Rises=F Damp=F
 DIIS: error= 4.78D-08 at cycle  13 NSaved=  13.
 NSaved=13 IEnMin=13 EnMin= -282.935812653306     IErMin=13 ErrMin= 4.78D-08
 ErrMax= 4.78D-08  0.00D+00 EMaxC= 1.00D-01 BMatC= 3.56D-13 BMatP= 3.36D-12
 IDIUse=1 WtCom= 1.00D+00 WtEn= 0.00D+00
 Coeff-Com:  0.123D-06-0.173D-05-0.103D-04 0.430D-06 0.108D-03 0.709D-04
 Coeff-Com: -0.957D-03-0.298D-03 0.575D-02 0.116D-01-0.108D+00-0.974D-02
 Coeff-Com:  0.110D+01
 Coeff:      0.123D-06-0.173D-05-0.103D-04 0.430D-06 0.108D-03 0.709D-04
 Coeff:     -0.957D-03-0.298D-03 0.575D-02 0.116D-01-0.108D+00-0.974D-02
 Coeff:      0.110D+01
 Gap=     0.523 Goal=   None    Shift=    0.000
 RMSDP=4.45D-09 MaxDP=9.52D-08 DE=-8.41D-12 OVMax= 4.08D-07

 SCF Done:  E(RHF) =  -282.935812653     A.U. after   13 cycles
            NFock= 13  Conv=0.44D-08     -V/T= 2.0013
 KE= 2.825789547787D+02 PE=-1.027368239834D+03 EE= 2.813155665733D+02
 Leave Link  502 at Mon Dec 26 21:16:56 2016, MaxMem=  4026531840 cpu:        37.4
 (Enter /public/home/users/shu004/g09/l801.exe)
 Windowed orbitals will be sorted by symmetry type.
 ExpMin= 1.03D-01 ExpMax= 1.53D+04 ExpMxC= 5.22D+02 IAcc=3 IRadAn=         5 AccDes= 0.00D+00
 HarFok:  IExCor=  205 AccDes= 0.00D+00 IRadAn=         5 IDoV=-2 UseB2=F ITyADJ=14
 ICtDFT= 12500011 ScaDFX=  1.000000  1.000000  1.000000  1.000000
 Largest valence mixing into a core orbital is  2.05D-04
 Largest core mixing into a valence orbital is  3.05D-05
 Range of M.O.s used for correlation:     6   220
 NBasis=   220 NAE=    20 NBE=    20 NFC=     5 NFV=     0
 NROrb=    215 NOA=    15 NOB=    15 NVA=   200 NVB=   200

 **** Warning!!: The largest alpha MO coefficient is  0.11031608D+02

 Leave Link  801 at Mon Dec 26 21:16:56 2016, MaxMem=  4026531840 cpu:         2.4
 (Enter /public/home/users/shu004/g09/l804.exe)
 Closed-shell transformation, MDV=  4026531840 ITran=4 ISComp=1.
 Semi-Direct transformation.
 ModeAB=           4 MOrb=            15 LenV=    4025214647
 LASXX=     71110065 LTotXX=    71110065 LenRXX=   143196465
 LTotAB=    72086400 MaxLAS=   100220100 LenRXY=           0
 NonZer=   214306530 LenScr=   322720768 LnRSAI=   100220100
 LnScr1=   151094272 LExtra=           0 Total=    717231605
 MaxDsk=          -1 SrtSym=           T ITran=            4
 DoSDTr:  NPSUse= 12
 JobTyp=0 Pass  1:  I=   1 to  15.
 (rs|ai) integrals will be sorted in core.
 Complete sort for first half transformation.
 First half transformation complete.
 Begin second half transformation for I=  10.
 Complete sort for second half transformation.
 Second half transformation complete.
 SymMOI:  orbitals are not symmetric.
 Spin components of T(2) and E(2):
     alpha-alpha T2 =       0.3546103425D-01 E2=     -0.1271057830D+00
     alpha-beta  T2 =       0.1972671920D+00 E2=     -0.7560895620D+00
     beta-beta   T2 =       0.3546103425D-01 E2=     -0.1271057830D+00
 ANorm=    0.1126139095D+01
 E2 =    -0.1010301128D+01 EUMP2 =    -0.28394611378142D+03
 Leave Link  804 at Mon Dec 26 21:17:18 2016, MaxMem=  4026531840 cpu:       260.7
 (Enter /public/home/users/shu004/g09/l913.exe)
 CIDS:  MDV=  4026531840.
 Frozen-core window:  NFC=   5 NFV=   0.
 IFCWin=0 IBDFC=1 NFBD=     0     0 NFCmp=     0     0 NFFFC=     0     0
 Using DD3R+UMP44R for 1st iteration, S=T.
 Using DD4RQ for 2nd and later iterations.
 Keep R2 and R3 ints in memory in canonical form, NReq=598908608.
 FoFCou: FMM=F IPFlag=           0 FMFlag=           0 FMFlg1=           0
         NFxFlg=           0 DoJE=F BraDBF=F KetDBF=F FulRan=T
         wScrn=  0.000000 ICntrl=     600 IOpCl=  0 I1Cent=           0 NGrid=           0
         NMat0=    1 NMatS0=  24310 NMatT0=    0 NMatD0=    1 NMtDS0=    0 NMtDT0=    0
 Symmetry not used in FoFCou.
 CCSD(T)
 =======
 Iterations=  50 Convergence= 0.100D-06
 Iteration Nr.   1
 **********************
 DD1Dir will call FoFMem   1 times, MxPair=       240
 NAB=   120 NAA=     0 NBB=     0.
 MP4(R+Q)=  0.21826003D-01
 Maximum subspace dimension=  5
 Norm of the A-vectors is  1.4056889D+00 conv= 1.00D-05.
 RLE energy=       -1.0001124888
 E3=       -0.12079775D-01        EUMP3=      -0.28395819356D+03
 E4(DQ)=    0.15527937D-02        UMP4(DQ)=   -0.28395664076D+03
 E4(SDQ)=  -0.94748810D-02        UMP4(SDQ)=  -0.28396766844D+03
 VARIATIONAL ENERGIES WITH THE FIRST-ORDER WAVEFUNCTION:
 DE(Corr)=  -1.0000090     E(Corr)=     -283.93582164    
 NORM(A)=   0.11264220D+01
 Iteration Nr.   2
 **********************
 DD1Dir will call FoFMem   1 times, MxPair=       240
 NAB=   120 NAA=     0 NBB=     0.
 Norm of the A-vectors is  5.1514884D-01 conv= 1.00D-05.
 RLE energy=       -1.0271859501
 DE(Corr)=  -1.0267116     E(CORR)=     -283.96252422     Delta=-2.67D-02
 NORM(A)=   0.11356013D+01
 Iteration Nr.   3
 **********************
 DD1Dir will call FoFMem   1 times, MxPair=       240
 NAB=   120 NAA=     0 NBB=     0.
 Norm of the A-vectors is  1.4220650D-01 conv= 1.00D-05.
 RLE energy=       -1.0286601765
 DE(Corr)=  -1.0263927     E(CORR)=     -283.96220538     Delta= 3.19D-04
 NORM(A)=   0.11380331D+01
 Iteration Nr.   4
 **********************
 DD1Dir will call FoFMem   1 times, MxPair=       240
 NAB=   120 NAA=     0 NBB=     0.
 Norm of the A-vectors is  5.7729253D-02 conv= 1.00D-05.
 RLE energy=       -1.0288272313
 DE(Corr)=  -1.0286493     E(CORR)=     -283.96446192     Delta=-2.26D-03
 NORM(A)=   0.11387514D+01
 Iteration Nr.   5
 **********************
 DD1Dir will call FoFMem   1 times, MxPair=       240
 NAB=   120 NAA=     0 NBB=     0.
 Norm of the A-vectors is  1.3244925D-02 conv= 1.00D-05.
 RLE energy=       -1.0289337627
 DE(Corr)=  -1.0288925     E(CORR)=     -283.96470515     Delta=-2.43D-04
 NORM(A)=   0.11389762D+01
 Iteration Nr.   6
 **********************
 DD1Dir will call FoFMem   1 times, MxPair=       240
 NAB=   120 NAA=     0 NBB=     0.
 Norm of the A-vectors is  6.7958585D-03 conv= 1.00D-05.
 RLE energy=       -1.0289273474
 DE(Corr)=  -1.0289138     E(CORR)=     -283.96472641     Delta=-2.13D-05
 NORM(A)=   0.11390079D+01
 Iteration Nr.   7
 **********************
 DD1Dir will call FoFMem   1 times, MxPair=       240
 NAB=   120 NAA=     0 NBB=     0.
 Norm of the A-vectors is  2.3972850D-03 conv= 1.00D-05.
 RLE energy=       -1.0289013501
 DE(Corr)=  -1.0289150     E(CORR)=     -283.96472769     Delta=-1.27D-06
 NORM(A)=   0.11390078D+01
 Iteration Nr.   8
 **********************
 DD1Dir will call FoFMem   1 times, MxPair=       240
 NAB=   120 NAA=     0 NBB=     0.
 Norm of the A-vectors is  8.9247576D-04 conv= 1.00D-05.
 RLE energy=       -1.0289134142
 DE(Corr)=  -1.0289143     E(CORR)=     -283.96472697     Delta= 7.24D-07
 NORM(A)=   0.11390126D+01
 Iteration Nr.   9
 **********************
 DD1Dir will call FoFMem   1 times, MxPair=       240
 NAB=   120 NAA=     0 NBB=     0.
 Norm of the A-vectors is  3.2622007D-04 conv= 1.00D-05.
 RLE energy=       -1.0289124872
 DE(Corr)=  -1.0289128     E(CORR)=     -283.96472549     Delta= 1.48D-06
 NORM(A)=   0.11390128D+01
 Iteration Nr.  10
 **********************
 DD1Dir will call FoFMem   1 times, MxPair=       240
 NAB=   120 NAA=     0 NBB=     0.
 Norm of the A-vectors is  1.4751228D-04 conv= 1.00D-05.
 RLE energy=       -1.0289136295
 DE(Corr)=  -1.0289137     E(CORR)=     -283.96472636     Delta=-8.67D-07
 NORM(A)=   0.11390133D+01
 Iteration Nr.  11
 **********************
 DD1Dir will call FoFMem   1 times, MxPair=       240
 NAB=   120 NAA=     0 NBB=     0.
 Norm of the A-vectors is  6.2758115D-05 conv= 1.00D-05.
 RLE energy=       -1.0289139447
 DE(Corr)=  -1.0289138     E(CORR)=     -283.96472642     Delta=-6.67D-08
 NORM(A)=   0.11390137D+01
 Iteration Nr.  12
 **********************
 DD1Dir will call FoFMem   1 times, MxPair=       240
 NAB=   120 NAA=     0 NBB=     0.
 Norm of the A-vectors is  3.0427259D-05 conv= 1.00D-05.
 RLE energy=       -1.0289140970
 DE(Corr)=  -1.0289140     E(CORR)=     -283.96472668     Delta=-2.59D-07
 NORM(A)=   0.11390138D+01
 Iteration Nr.  13
 **********************
 DD1Dir will call FoFMem   1 times, MxPair=       240
 NAB=   120 NAA=     0 NBB=     0.
 Norm of the A-vectors is  1.2381529D-05 conv= 1.00D-05.
 RLE energy=       -1.0289140913
 DE(Corr)=  -1.0289141     E(CORR)=     -283.96472671     Delta=-3.25D-08
 NORM(A)=   0.11390139D+01
 Iteration Nr.  14
 **********************
 DD1Dir will call FoFMem   1 times, MxPair=       240
 NAB=   120 NAA=     0 NBB=     0.
 Norm of the A-vectors is  6.6050087D-06 conv= 1.00D-05.
 RLE energy=       -1.0289141159
 DE(Corr)=  -1.0289141     E(CORR)=     -283.96472676     Delta=-4.75D-08
 NORM(A)=   0.11390139D+01
 CI/CC converged in   14 iterations to DelEn=-4.75D-08 Conv= 1.00D-07 ErrA1= 6.61D-06 Conv= 1.00D-05
 Largest amplitude= 3.55D-02
 T4(AAA)= -0.12807659D-02
 T4(AAB)= -0.21016972D-01
 T5(AAA)=  0.81263906D-04
 T5(AAB)=  0.92910945D-03
 Time for triples=     4713.30 seconds.
 T4(CCSD)= -0.44595476D-01
 T5(CCSD)=  0.20207467D-02
 CCSD(T)= -0.28400730149D+03
 Discarding MO integrals.
 Leave Link  913 at Mon Dec 26 21:32:36 2016, MaxMem=  4026531840 cpu:     10908.2
 (Enter /public/home/users/shu004/g09/l601.exe)
 Copying SCF densities to generalized density rwf, IOpCl= 0 IROHF=0.

 **********************************************************************

            Population analysis using the SCF density.

 **********************************************************************

 Orbital symmetries:
       Occupied  (A) (A) (A) (A) (A) (A) (A) (A) (A) (A) (A) (A)
                 (A) (A) (A) (A) (A) (A) (A) (A)
       Virtual   (A) (A) (A) (A) (A) (A) (A) (A) (A) (A) (A) (A)
                 (A) (A) (A) (A) (A) (A) (A) (A) (A) (A) (A) (A)
                 (A) (A) (A) (A) (A) (A) (A) (A) (A) (A) (A) (A)
                 (A) (A) (A) (A) (A) (A) (A) (A) (A) (A) (A) (A)
                 (A) (A) (A) (A) (A) (A) (A) (A) (A) (A) (A) (A)
                 (A) (A) (A) (A) (A) (A) (A) (A) (A) (A) (A) (A)
                 (A) (A) (A) (A) (A) (A) (A) (A) (A) (A) (A) (A)
                 (A) (A) (A) (A) (A) (A) (A) (A) (A) (A) (A) (A)
                 (A) (A) (A) (A) (A) (A) (A) (A) (A) (A) (A) (A)
                 (A) (A) (A) (A) (A) (A) (A) (A) (A) (A) (A) (A)
                 (A) (A) (A) (A) (A) (A) (A) (A) (A) (A) (A) (A)
                 (A) (A) (A) (A) (A) (A) (A) (A) (A) (A) (A) (A)
                 (A) (A) (A) (A) (A) (A) (A) (A) (A) (A) (A) (A)
                 (A) (A) (A) (A) (A) (A) (A) (A) (A) (A) (A) (A)
                 (A) (A) (A) (A) (A) (A) (A) (A) (A) (A) (A) (A)
                 (A) (A) (A) (A) (A) (A) (A) (A) (A) (A) (A) (A)
                 (A) (A) (A) (A) (A) (A) (A) (A)
 The electronic state is 1-A.
 Alpha  occ. eigenvalues --  -20.61736 -20.54895 -15.54827 -11.38826 -11.28768
 Alpha  occ. eigenvalues --   -1.46891  -1.37326  -1.19798  -0.97501  -0.83352
 Alpha  occ. eigenvalues --   -0.74298  -0.67890  -0.67095  -0.65215  -0.59960
 Alpha  occ. eigenvalues --   -0.58138  -0.56130  -0.48696  -0.45757  -0.40809
 Alpha virt. eigenvalues --    0.11539   0.14059   0.16977   0.19955   0.20994
 Alpha virt. eigenvalues --    0.22878   0.31107   0.32116   0.35721   0.41236
 Alpha virt. eigenvalues --    0.45028   0.47588   0.49538   0.52008   0.54588
 Alpha virt. eigenvalues --    0.55789   0.57319   0.57840   0.61187   0.61854
 Alpha virt. eigenvalues --    0.63767   0.66510   0.67825   0.70434   0.71852
 Alpha virt. eigenvalues --    0.74493   0.77574   0.81370   0.81958   0.82551
 Alpha virt. eigenvalues --    0.87903   0.90430   0.91180   0.98456   0.98916
 Alpha virt. eigenvalues --    1.00164   1.05170   1.07643   1.12281   1.14326
 Alpha virt. eigenvalues --    1.18054   1.21239   1.23972   1.26450   1.30403
 Alpha virt. eigenvalues --    1.31663   1.35819   1.36521   1.43235   1.43445
 Alpha virt. eigenvalues --    1.48838   1.51075   1.52002   1.52841   1.57334
 Alpha virt. eigenvalues --    1.61034   1.67111   1.72048   1.74813   1.81942
 Alpha virt. eigenvalues --    1.84361   1.86034   1.91149   1.99633   2.02719
 Alpha virt. eigenvalues --    2.02803   2.04909   2.06133   2.23365   2.27862
 Alpha virt. eigenvalues --    2.29312   2.32557   2.40712   2.42970   2.47969
 Alpha virt. eigenvalues --    2.59152   2.61552   2.69520   2.72784   2.80950
 Alpha virt. eigenvalues --    2.84503   2.90551   2.93648   2.97957   3.02261
 Alpha virt. eigenvalues --    3.04287   3.05866   3.11847   3.16890   3.17543
 Alpha virt. eigenvalues --    3.23115   3.25799   3.30807   3.32939   3.34683
 Alpha virt. eigenvalues --    3.40224   3.42395   3.44989   3.45139   3.49531
 Alpha virt. eigenvalues --    3.52934   3.54176   3.56726   3.58526   3.62897
 Alpha virt. eigenvalues --    3.65256   3.66473   3.69074   3.73816   3.75841
 Alpha virt. eigenvalues --    3.77730   3.79833   3.83893   3.84529   3.85993
 Alpha virt. eigenvalues --    3.89917   3.91819   3.99043   4.00772   4.02408
 Alpha virt. eigenvalues --    4.06243   4.11804   4.13045   4.15634   4.16834
 Alpha virt. eigenvalues --    4.19917   4.23366   4.25795   4.29830   4.33277
 Alpha virt. eigenvalues --    4.36087   4.39183   4.45496   4.50047   4.51685
 Alpha virt. eigenvalues --    4.52395   4.54409   4.59046   4.60896   4.66610
 Alpha virt. eigenvalues --    4.67954   4.72381   4.74190   4.80729   4.84476
 Alpha virt. eigenvalues --    4.88782   5.00383   5.06399   5.15322   5.20847
 Alpha virt. eigenvalues --    5.23328   5.28930   5.33868   5.41471   5.48966
 Alpha virt. eigenvalues --    5.51639   5.57399   5.62205   5.64462   5.64619
 Alpha virt. eigenvalues --    5.68047   5.71214   5.76083   5.78915   5.86177
 Alpha virt. eigenvalues --    5.93501   6.01164   6.07472   6.09884   6.15066
 Alpha virt. eigenvalues --    6.18115   6.23515   6.30912   6.33443   6.43209
 Alpha virt. eigenvalues --    6.46752   6.53801   6.67706   6.74120   6.76789
 Alpha virt. eigenvalues --    6.85542   6.95646   6.97086   7.07724   7.12950
 Alpha virt. eigenvalues --    7.19026   7.25877   7.27334   7.32522   7.36324
 Alpha virt. eigenvalues --    7.47751   7.56071   7.63256   7.77736   7.92470
 Alpha virt. eigenvalues --    9.53949  12.68873  12.87495  13.84990  13.95562
          Condensed to atoms (all electrons):
               1          2          3          4          5          6
     1  C    4.199505   0.429190   0.743918  -0.032821   0.351803  -0.037619
     2  O    0.429190   7.703051  -0.078363   0.326912  -0.093341   0.003649
     3  O    0.743918  -0.078363   7.775538   0.004618  -0.083075  -0.009348
     4  H   -0.032821   0.326912   0.004618   0.469566   0.000972   0.000273
     5  C    0.351803  -0.093341  -0.083075   0.000972   4.822265   0.334697
     6  N   -0.037619   0.003649  -0.009348   0.000273   0.334697   6.385969
     7  H   -0.018757   0.001940  -0.000314  -0.000085   0.419772  -0.054761
     8  H   -0.030054   0.002263   0.001185   0.000116   0.393654  -0.036722
     9  H    0.003955  -0.000227  -0.000260  -0.000013  -0.026217   0.387890
    10  H   -0.015431   0.001058   0.020226  -0.000118  -0.040683   0.401003
               7          8          9         10
     1  C   -0.018757  -0.030054   0.003955  -0.015431
     2  O    0.001940   0.002263  -0.000227   0.001058
     3  O   -0.000314   0.001185  -0.000260   0.020226
     4  H   -0.000085   0.000116  -0.000013  -0.000118
     5  C    0.419772   0.393654  -0.026217  -0.040683
     6  N   -0.054761  -0.036722   0.387890   0.401003
     7  H    0.636502  -0.067687  -0.009883   0.002053
     8  H   -0.067687   0.650889   0.000832   0.006203
     9  H   -0.009883   0.000832   0.544321  -0.043812
    10  H    0.002053   0.006203  -0.043812   0.495213
 Mulliken charges:
               1
     1  C    0.406311
     2  O   -0.296132
     3  O   -0.374125
     4  H    0.230581
     5  C   -0.079847
     6  N   -0.375031
     7  H    0.091220
     8  H    0.079321
     9  H    0.143414
    10  H    0.174289
 Sum of Mulliken charges =   0.00000
 Mulliken charges with hydrogens summed into heavy atoms:
               1
     1  C    0.406311
     2  O   -0.065551
     3  O   -0.374125
     5  C    0.090693
     6  N   -0.057328
 Electronic spatial extent (au):  <R**2>=            414.0733
 Charge=              0.0000 electrons
 Dipole moment (field-independent basis, Debye):
    X=             -1.2757    Y=             -4.1120    Z=              1.2725  Tot=              4.4894
 Quadrupole moment (field-independent basis, Debye-Ang):
   XX=            -30.9717   YY=            -28.4073   ZZ=            -29.9503
   XY=             -3.6554   XZ=             -3.4864   YZ=              0.0420
 Traceless Quadrupole moment (field-independent basis, Debye-Ang):
   XX=             -1.1952   YY=              1.3691   ZZ=             -0.1739
   XY=             -3.6554   XZ=             -3.4864   YZ=              0.0420
 Octapole moment (field-independent basis, Debye-Ang**2):
  XXX=             -7.0034  YYY=             -9.9522  ZZZ=              1.5897  XYY=              2.3370
  XXY=             -3.8308  XXZ=              8.1795  XZZ=              3.5418  YZZ=             -0.4376
  YYZ=             -0.5345  XYZ=              0.5711
 Hexadecapole moment (field-independent basis, Debye-Ang**3):
 XXXX=           -308.3872 YYYY=           -134.1023 ZZZZ=            -35.2215 XXXY=             -6.5608
 XXXZ=            -21.7967 YYYX=            -19.1225 YYYZ=              1.6626 ZZZX=             -3.8632
 ZZZY=             -0.0886 XXYY=            -63.7575 XXZZ=            -64.1570 YYZZ=            -27.9267
 XXYZ=             -0.4315 YYXZ=             -1.5428 ZZXY=              0.0401
 N-N= 1.805379058292D+02 E-N=-1.027368237511D+03  KE= 2.825789547787D+02
 Leave Link  601 at Mon Dec 26 21:32:36 2016, MaxMem=  4026531840 cpu:         1.6
 (Enter /public/home/users/shu004/g09/l9999.exe)
 1\1\GINC-A730\SP\RCCSD(T)-FC\CC-pVTZ\C2H5N1O2\SHU004\26-Dec-2016\0\\#P
  CCSD(T) cc-pVTZ\\VIII_SP\\0,1\C\O,1,1.350639199\O,1,1.196528699,2,120
 .3932146\H,2,0.961654864,1,110.5740242,3,-178.19299,0\C,1,1.514064823,
 3,124.0964059,2,178.4170875,0\N,5,1.446363011,1,110.3514816,3,14.53424
 08,0\H,5,1.096841522,1,106.104928,3,-109.3302257,0\H,5,1.093775389,1,1
 08.591649,3,135.7513316,0\H,6,1.008066405,5,112.0878145,1,-144.9571968
 ,0\H,6,1.012597049,5,109.6684359,1,-23.85712294,0\\Version=ES64L-G09Re
 vD.01\State=1-A\HF=-282.9358127\MP2=-283.9461138\MP3=-283.9581936\MP4D
 =-283.9784668\MP4DQ=-283.9566408\MP4SDQ=-283.9676684\CCSD=-283.9647268
 \CCSD(T)=-284.0073015\RMSD=4.449e-09\PG=C01 [X(C2H5N1O2)]\\@


 ... IT IS NO ONE DREAME THAT
     CAN PLEASE THESE ALL ...

                -- BEN JONSON
 Job cpu time:       0 days  3 hours  7 minutes  9.3 seconds.
 File lengths (MBytes):  RWF=  10361 Int=      0 D2E=      0 Chk=      3 Scr=      1
 Normal termination of Gaussian 09 at Mon Dec 26 21:32:37 2016.
