 Entering Gaussian System, Link 0=g16
 Input=gtt_Best_geom_MP2_aug_cc-pVQZ.gjf
 Output=gtt_Best_geom_MP2_aug_cc-pVQZ.log
 Initial command:
 /data2/software/Gaussian/g16_from_xuruiqin/g16/l1.exe "/home/shuchong/scratch/Gau-38478.inp" -scrdir="/home/shuchong/scratch/"
 Entering Link 1 = /data2/software/Gaussian/g16_from_xuruiqin/g16/l1.exe PID=     38479.
  
 Copyright (c) 1988-2019, Gaussian, Inc.  All Rights Reserved.
  
 This is part of the Gaussian(R) 16 program.  It is based on
 the Gaussian(R) 09 system (copyright 2009, Gaussian, Inc.),
 the Gaussian(R) 03 system (copyright 2003, Gaussian, Inc.),
 the Gaussian(R) 98 system (copyright 1998, Gaussian, Inc.),
 the Gaussian(R) 94 system (copyright 1995, Gaussian, Inc.),
 the Gaussian 92(TM) system (copyright 1992, Gaussian, Inc.),
 the Gaussian 90(TM) system (copyright 1990, Gaussian, Inc.),
 the Gaussian 88(TM) system (copyright 1988, Gaussian, Inc.),
 the Gaussian 86(TM) system (copyright 1986, Carnegie Mellon
 University), and the Gaussian 82(TM) system (copyright 1983,
 Carnegie Mellon University). Gaussian is a federally registered
 trademark of Gaussian, Inc.
  
 This software contains proprietary and confidential information,
 including trade secrets, belonging to Gaussian, Inc.
  
 This software is provided under written license and may be
 used, copied, transmitted, or stored only in accord with that
 written license.
  
 The following legend is applicable only to US Government
 contracts under FAR:
  
                    RESTRICTED RIGHTS LEGEND
  
 Use, reproduction and disclosure by the US Government is
 subject to restrictions as set forth in subparagraphs (a)
 and (c) of the Commercial Computer Software - Restricted
 Rights clause in FAR 52.227-19.
  
 Gaussian, Inc.
 340 Quinnipiac St., Bldg. 40, Wallingford CT 06492
  
  
 ---------------------------------------------------------------
 Warning -- This program may not be used in any manner that
 competes with the business of Gaussian, Inc. or will provide
 assistance to any competitor of Gaussian, Inc.  The licensee
 of this program is prohibited from giving any competitor of
 Gaussian, Inc. access to this program.  By using this program,
 the user acknowledges that Gaussian, Inc. is engaged in the
 business of creating and licensing software in the field of
 computational chemistry and represents and warrants to the
 licensee that it is not a competitor of Gaussian, Inc. and that
 it will not use this program in any manner prohibited above.
 ---------------------------------------------------------------
  

 Cite this work as:
 Gaussian 16, Revision C.01,
 M. J. Frisch, G. W. Trucks, H. B. Schlegel, G. E. Scuseria, 
 M. A. Robb, J. R. Cheeseman, G. Scalmani, V. Barone, 
 G. A. Petersson, H. Nakatsuji, X. Li, M. Caricato, A. V. Marenich, 
 J. Bloino, B. G. Janesko, R. Gomperts, B. Mennucci, H. P. Hratchian, 
 J. V. Ortiz, A. F. Izmaylov, J. L. Sonnenberg, D. Williams-Young, 
 F. Ding, F. Lipparini, F. Egidi, J. Goings, B. Peng, A. Petrone, 
 T. Henderson, D. Ranasinghe, V. G. Zakrzewski, J. Gao, N. Rega, 
 G. Zheng, W. Liang, M. Hada, M. Ehara, K. Toyota, R. Fukuda, 
 J. Hasegawa, M. Ishida, T. Nakajima, Y. Honda, O. Kitao, H. Nakai, 
 T. Vreven, K. Throssell, J. A. Montgomery, Jr., J. E. Peralta, 
 F. Ogliaro, M. J. Bearpark, J. J. Heyd, E. N. Brothers, K. N. Kudin, 
 V. N. Staroverov, T. A. Keith, R. Kobayashi, J. Normand, 
 K. Raghavachari, A. P. Rendell, J. C. Burant, S. S. Iyengar, 
 J. Tomasi, M. Cossi, J. M. Millam, M. Klene, C. Adamo, R. Cammi, 
 J. W. Ochterski, R. L. Martin, K. Morokuma, O. Farkas, 
 J. B. Foresman, and D. J. Fox, Gaussian, Inc., Wallingford CT, 2019.
 
 ******************************************
 Gaussian 16:  ES64L-G16RevC.01  3-Jul-2019
                16-Jan-2021 
 ******************************************
 %chk=gtt_Best_geom_MP2_aug_cc-pVQZ.chk
 %nprocshared=28
 Will use up to   28 processors via shared memory.
 %mem=100GB
 ------------------
 #p MP2 aug-cc-pvqz
 ------------------
 1/38=1,172=1/1;
 2/12=2,17=6,18=5,40=1/2;
 3/5=16,6=2,7=10,11=9,25=1,30=1/1,2,3;
 4//1;
 5/5=2,38=5/2;
 8/10=1/1;
 9/16=-3/6;
 6/7=2,8=2,9=2,10=2/1;
 99/5=1,9=1/99;
 Leave Link    1 at Sat Jan 16 11:37:08 2021, MaxMem= 13421772800 cpu:               1.6 elap:               0.1
 (Enter /data2/software/Gaussian/g16_from_xuruiqin/g16/l101.exe)
 --------------------------
 start best geom PCCP paper
 --------------------------
 Symbolic Z-matrix:
 Charge =  0 Multiplicity = 1
 C
 O                    1    B1
 O                    1    B2       2    A1
 H                    2    B3       1    A2       3    D1       0
 C                    1    B4       3    A3       2    D2       0
 N                    5    B5       1    A4       3    D3       0
 H                    5    B6       1    A5       3    D4       0
 H                    5    B7       1    A6       3    D5       0
 H                    6    B8       5    A7       1    D6       0
 H                    6    B9       5    A8       1    D7       0
       Variables:
  B1                    1.34608                  
  B2                    1.20274                  
  B3                    0.96513                  
  B4                    1.50353                  
  B5                    1.44879                  
  B6                    1.09682                  
  B7                    1.08963                  
  B8                    1.00859                  
  B9                    1.01187                  
  A1                  123.21263                  
  A2                  106.9601                   
  A3                  125.17128                  
  A4                  110.05161                  
  A5                  105.6396                   
  A6                  108.30581                  
  A7                  111.64684                  
  A8                  110.28053                  
  D1                    1.12063                  
  D2                  178.03326                  
  D3                   18.04528                  
  D4                 -106.18775                  
  D5                  139.44601                  
  D6                 -155.36007                  
  D7                  -34.31555                  
 
 ITRead=  0  0  0  0  0  0  0  0  0  0
 MicOpt= -1 -1 -1 -1 -1 -1 -1 -1 -1 -1
 NAtoms=     10 NQM=       10 NQMF=       0 NMMI=      0 NMMIF=      0
                NMic=       0 NMicF=      0.
                    Isotopes and Nuclear Properties:
 (Nuclear quadrupole moments (NQMom) in fm**2, nuclear magnetic moments (NMagM)
  in nuclear magnetons)

  Atom         1           2           3           4           5           6           7           8           9          10
 IAtWgt=          12          16          16           1          12          14           1           1           1           1
 AtmWgt=  12.0000000  15.9949146  15.9949146   1.0078250  12.0000000  14.0030740   1.0078250   1.0078250   1.0078250   1.0078250
 NucSpn=           0           0           0           1           0           2           1           1           1           1
 AtZEff=  -0.0000000  -0.0000000  -0.0000000  -0.0000000  -0.0000000  -0.0000000  -0.0000000  -0.0000000  -0.0000000  -0.0000000
 NQMom=    0.0000000   0.0000000   0.0000000   0.0000000   0.0000000   2.0440000   0.0000000   0.0000000   0.0000000   0.0000000
 NMagM=    0.0000000   0.0000000   0.0000000   2.7928460   0.0000000   0.4037610   2.7928460   2.7928460   2.7928460   2.7928460
 AtZNuc=   6.0000000   8.0000000   8.0000000   1.0000000   6.0000000   7.0000000   1.0000000   1.0000000   1.0000000   1.0000000
 Leave Link  101 at Sat Jan 16 11:37:08 2021, MaxMem= 13421772800 cpu:               2.3 elap:               0.1
 (Enter /data2/software/Gaussian/g16_from_xuruiqin/g16/l202.exe)
                          Input orientation:                          
 ---------------------------------------------------------------------
 Center     Atomic      Atomic             Coordinates (Angstroms)
 Number     Number       Type             X           Y           Z
 ---------------------------------------------------------------------
      1          6           0        0.000000    0.000000    0.000000
      2          8           0        0.000000    0.000000    1.346080
      3          8           0        1.006265    0.000000   -0.658798
      4          1           0        0.922978    0.018055    1.627614
      5          6           0       -1.397395    0.042180   -0.553273
      6          7           0       -1.390055   -0.339641   -1.950825
      7          1           0       -1.761669    1.058393   -0.359291
      8          1           0       -2.017816   -0.635948    0.031974
      9          1           0       -2.181188    0.043508   -2.445353
     10          1           0       -0.540559   -0.019158   -2.397512
 ---------------------------------------------------------------------
                    Distance matrix (angstroms):
                    1          2          3          4          5
     1  C    0.000000
     2  O    1.346080   0.000000
     3  O    1.202740   2.243235   0.000000
     4  H    1.871187   0.965130   2.288000   0.000000
     5  C    1.503530   2.358396   2.406344   3.184491   0.000000
     6  N    2.419365   3.594049   2.743544   4.275897   1.448790
     7  H    2.086328   2.670574   2.978483   3.498203   1.096820
     8  H    2.115900   2.490560   3.166490   3.409114   1.089630
     9  H    3.277076   4.374293   3.654248   5.121089   2.047999
    10  H    2.457770   3.782466   2.327263   4.283102   2.034489
                    6          7          8          9         10
     6  N    0.000000
     7  H    2.150715   0.000000
     8  H    2.100803   1.757695   0.000000
     9  H    1.008590   2.357465   2.574004   0.000000
    10  H    1.011870   2.608940   2.909487   1.642523   0.000000
 Stoichiometry    C2H5NO2
 Framework group  C1[X(C2H5NO2)]
 Deg. of freedom    24
 Full point group                 C1      NOp   1
 Largest Abelian subgroup         C1      NOp   1
 Largest concise Abelian subgroup C1      NOp   1
                         Standard orientation:                         
 ---------------------------------------------------------------------
 Center     Atomic      Atomic             Coordinates (Angstroms)
 Number     Number       Type             X           Y           Z
 ---------------------------------------------------------------------
      1          6           0        0.533710    0.102893    0.014867
      2          8           0        1.632185   -0.670799   -0.066880
      3          8           0        0.575034    1.304539    0.045254
      4          1           0        2.393950   -0.078239   -0.074783
      5          6           0       -0.719436   -0.723120    0.103930
      6          7           0       -1.876755    0.096522   -0.192365
      7          1           0       -0.714656   -1.160119    1.109923
      8          1           0       -0.636201   -1.548521   -0.602525
      9          1           0       -2.714348   -0.276671    0.227657
     10          1           0       -1.734852    1.039339    0.146516
 ---------------------------------------------------------------------
 Rotational constants (GHZ):          10.4739593           4.0016078           2.9777418
 Leave Link  202 at Sat Jan 16 11:37:08 2021, MaxMem= 13421772800 cpu:               0.2 elap:               0.0
 (Enter /data2/software/Gaussian/g16_from_xuruiqin/g16/l301.exe)
 Standard basis: Aug-CC-pVQZ (5D, 7F)
 Ernie: Thresh=  0.10000D-02 Tol=  0.10000D-05 Strict=F.
 Ernie:  15 primitive shells out of 270 were deleted.
 There are   800 symmetry adapted cartesian basis functions of A   symmetry.
 There are   630 symmetry adapted basis functions of A   symmetry.
   630 basis functions,   905 primitive gaussians,   800 cartesian basis functions
    20 alpha electrons       20 beta electrons
       nuclear repulsion energy       180.5543247289 Hartrees.
 IExCor=    0 DFT=F Ex=HF Corr=None ExCW=0 ScaHFX=  1.000000
 ScaDFX=  1.000000  1.000000  1.000000  1.000000 ScalE2=  1.000000  1.000000
 IRadAn=      5 IRanWt=     -1 IRanGd=            0 ICorTp=0 IEmpDi=  4
 NAtoms=   10 NActive=   10 NUniq=   10 SFac= 1.00D+00 NAtFMM=   60 NAOKFM=F Big=F
 Integral buffers will be    131072 words long.
 Raffenetti 1 integral format.
 Two-electron integral symmetry is turned on.
 Leave Link  301 at Sat Jan 16 11:37:09 2021, MaxMem= 13421772800 cpu:               1.1 elap:               0.1
 (Enter /data2/software/Gaussian/g16_from_xuruiqin/g16/l302.exe)
 NPDir=0 NMtPBC=     1 NCelOv=     1 NCel=       1 NClECP=     1 NCelD=      1
         NCelK=      1 NCelE2=     1 NClLst=     1 CellRange=     0.0.
 One-electron integrals computed using PRISM.
 One-electron integral symmetry used in STVInt
 NBasis=   630 RedAO= T EigKep=  3.54D-06  NBF=   630
 NBsUse=   630 1.00D-06 EigRej= -1.00D+00 NBFU=   630
 Leave Link  302 at Sat Jan 16 11:37:10 2021, MaxMem= 13421772800 cpu:              34.3 elap:               1.3
 (Enter /data2/software/Gaussian/g16_from_xuruiqin/g16/l303.exe)
 DipDrv:  MaxL=1.
 Leave Link  303 at Sat Jan 16 11:37:10 2021, MaxMem= 13421772800 cpu:               2.0 elap:               0.1
 (Enter /data2/software/Gaussian/g16_from_xuruiqin/g16/l401.exe)
 ExpMin= 2.36D-02 ExpMax= 6.14D+04 ExpMxC= 5.91D+02 IAcc=3 IRadAn=         5 AccDes= 0.00D+00
 Harris functional with IExCor=  205 and IRadAn=       5 diagonalized for initial guess.
 HarFok:  IExCor=  205 AccDes= 0.00D+00 IRadAn=         5 IDoV= 1 UseB2=F ITyADJ=14
 ICtDFT=  3500011 ScaDFX=  1.000000  1.000000  1.000000  1.000000
 FoFCou: FMM=F IPFlag=           0 FMFlag=      100000 FMFlg1=           0
         NFxFlg=           0 DoJE=T BraDBF=F KetDBF=T FulRan=T
         wScrn=  0.000000 ICntrl=       500 IOpCl=  0 I1Cent=   200000004 NGrid=           0
         NMat0=    1 NMatS0=      1 NMatT0=    0 NMatD0=    1 NMtDS0=    0 NMtDT0=    0
 Petite list used in FoFCou.
 Harris En= -283.249548727447    
 JPrj=0 DoOrth=F DoCkMO=F.
 Leave Link  401 at Sat Jan 16 11:37:12 2021, MaxMem= 13421772800 cpu:              48.1 elap:               1.8
 (Enter /data2/software/Gaussian/g16_from_xuruiqin/g16/l502.exe)
 Integral symmetry usage will be decided dynamically.
 Closed shell SCF:
 Using DIIS extrapolation, IDIIS=  1040.
 NGot= 13421772800 LenX= 13420464094 LenY= 13419823294
 Requested convergence on RMS density matrix=1.00D-08 within 128 cycles.
 Requested convergence on MAX density matrix=1.00D-06.
 Requested convergence on             energy=1.00D-06.
 No special actions if energy rises.
 Fock matrices will be formed incrementally for  20 cycles.

 Cycle   1  Pass 1  IDiag  1:
 FoFJK:  IHMeth= 1 ICntrl=       0 DoSepK=F KAlg= 0 I1Cent=           0 FoldK=F
 IRaf= 980000000 NMat=       1 IRICut=       1 DoRegI=T DoRafI=F ISym2E= 0 IDoP0=0 IntGTp=1.
 FoFCou: FMM=F IPFlag=           0 FMFlag=      100000 FMFlg1=           0
         NFxFlg=           0 DoJE=F BraDBF=F KetDBF=F FulRan=T
         wScrn=  0.000000 ICntrl=         0 IOpCl=  0 I1Cent=           0 NGrid=           0
         NMat0=    1 NMatS0=      1 NMatT0=    0 NMatD0=    1 NMtDS0=    0 NMtDT0=    0
 Symmetry not used in FoFCou.
 E= -282.726749552795    
 DIIS: error= 1.79D-02 at cycle   1 NSaved=   1.
 NSaved= 1 IEnMin= 1 EnMin= -282.726749552795     IErMin= 1 ErrMin= 1.79D-02
 ErrMax= 1.79D-02  0.00D+00 EMaxC= 1.00D-01 BMatC= 6.51D-01 BMatP= 6.51D-01
 IDIUse=3 WtCom= 8.21D-01 WtEn= 1.79D-01
 Coeff-Com:  0.100D+01
 Coeff-En:   0.100D+01
 Coeff:      0.100D+01
 Gap=     0.501 Goal=   None    Shift=    0.000
 GapD=    0.501 DampG=2.000 DampE=0.500 DampFc=1.0000 IDamp=-1.
 RMSDP=8.46D-04 MaxDP=8.30D-02              OVMax= 1.23D-01

 Cycle   2  Pass 1  IDiag  1:
 RMSU=  8.24D-04    CP:  9.45D-01
 E= -282.912691578842     Delta-E=       -0.185942026047 Rises=F Damp=F
 DIIS: error= 9.65D-03 at cycle   2 NSaved=   2.
 NSaved= 2 IEnMin= 2 EnMin= -282.912691578842     IErMin= 2 ErrMin= 9.65D-03
 ErrMax= 9.65D-03  0.00D+00 EMaxC= 1.00D-01 BMatC= 8.16D-02 BMatP= 6.51D-01
 IDIUse=3 WtCom= 9.04D-01 WtEn= 9.65D-02
 Coeff-Com:  0.189D+00 0.811D+00
 Coeff-En:   0.000D+00 0.100D+01
 Coeff:      0.171D+00 0.829D+00
 Gap=     0.462 Goal=   None    Shift=    0.000
 RMSDP=2.96D-04 MaxDP=3.10D-02 DE=-1.86D-01 OVMax= 6.00D-02

 Cycle   3  Pass 1  IDiag  1:
 RMSU=  2.80D-04    CP:  9.46D-01  8.86D-01
 E= -282.960965600830     Delta-E=       -0.048274021988 Rises=F Damp=F
 DIIS: error= 3.00D-03 at cycle   3 NSaved=   3.
 NSaved= 3 IEnMin= 3 EnMin= -282.960965600830     IErMin= 3 ErrMin= 3.00D-03
 ErrMax= 3.00D-03  0.00D+00 EMaxC= 1.00D-01 BMatC= 1.11D-02 BMatP= 8.16D-02
 IDIUse=3 WtCom= 9.70D-01 WtEn= 3.00D-02
 Coeff-Com: -0.235D-01 0.240D+00 0.783D+00
 Coeff-En:   0.000D+00 0.000D+00 0.100D+01
 Coeff:     -0.228D-01 0.233D+00 0.790D+00
 Gap=     0.431 Goal=   None    Shift=    0.000
 RMSDP=7.74D-05 MaxDP=8.10D-03 DE=-4.83D-02 OVMax= 2.55D-02

 Cycle   4  Pass 1  IDiag  1:
 RMSU=  4.84D-05    CP:  9.46D-01  9.38D-01  8.47D-01
 E= -282.967991093483     Delta-E=       -0.007025492653 Rises=F Damp=F
 DIIS: error= 1.20D-03 at cycle   4 NSaved=   4.
 NSaved= 4 IEnMin= 4 EnMin= -282.967991093483     IErMin= 4 ErrMin= 1.20D-03
 ErrMax= 1.20D-03  0.00D+00 EMaxC= 1.00D-01 BMatC= 3.67D-04 BMatP= 1.11D-02
 IDIUse=3 WtCom= 9.88D-01 WtEn= 1.20D-02
 Coeff-Com: -0.106D-01 0.570D-01 0.245D+00 0.709D+00
 Coeff-En:   0.000D+00 0.000D+00 0.000D+00 0.100D+01
 Coeff:     -0.105D-01 0.564D-01 0.242D+00 0.712D+00
 Gap=     0.426 Goal=   None    Shift=    0.000
 RMSDP=1.78D-05 MaxDP=1.58D-03 DE=-7.03D-03 OVMax= 4.88D-03

 Cycle   5  Pass 1  IDiag  1:
 RMSU=  1.71D-05    CP:  9.46D-01  9.39D-01  8.59D-01  9.29D-01
 E= -282.968305891124     Delta-E=       -0.000314797642 Rises=F Damp=F
 DIIS: error= 2.24D-04 at cycle   5 NSaved=   5.
 NSaved= 5 IEnMin= 5 EnMin= -282.968305891124     IErMin= 5 ErrMin= 2.24D-04
 ErrMax= 2.24D-04  0.00D+00 EMaxC= 1.00D-01 BMatC= 2.97D-05 BMatP= 3.67D-04
 IDIUse=3 WtCom= 9.98D-01 WtEn= 2.24D-03
 Coeff-Com:  0.206D-02-0.241D-01-0.824D-01 0.497D-01 0.105D+01
 Coeff-En:   0.000D+00 0.000D+00 0.000D+00 0.000D+00 0.100D+01
 Coeff:      0.206D-02-0.240D-01-0.822D-01 0.496D-01 0.105D+01
 Gap=     0.428 Goal=   None    Shift=    0.000
 RMSDP=9.83D-06 MaxDP=8.02D-04 DE=-3.15D-04 OVMax= 3.70D-03

 Cycle   6  Pass 1  IDiag  1:
 RMSU=  4.73D-06    CP:  9.47D-01  9.41D-01  8.62D-01  1.08D+00  1.24D+00
 E= -282.968359921297     Delta-E=       -0.000054030172 Rises=F Damp=F
 DIIS: error= 7.92D-05 at cycle   6 NSaved=   6.
 NSaved= 6 IEnMin= 6 EnMin= -282.968359921297     IErMin= 6 ErrMin= 7.92D-05
 ErrMax= 7.92D-05  0.00D+00 EMaxC= 1.00D-01 BMatC= 4.02D-06 BMatP= 2.97D-05
 IDIUse=1 WtCom= 1.00D+00 WtEn= 0.00D+00
 Coeff-Com:  0.140D-02-0.107D-01-0.396D-01-0.711D-01 0.188D+00 0.932D+00
 Coeff:      0.140D-02-0.107D-01-0.396D-01-0.711D-01 0.188D+00 0.932D+00
 Gap=     0.428 Goal=   None    Shift=    0.000
 RMSDP=3.89D-06 MaxDP=3.35D-04 DE=-5.40D-05 OVMax= 1.06D-03

 Cycle   7  Pass 1  IDiag  1:
 RMSU=  1.84D-06    CP:  9.47D-01  9.41D-01  8.63D-01  1.12D+00  1.38D+00
                    CP:  1.17D+00
 E= -282.968367435581     Delta-E=       -0.000007514285 Rises=F Damp=F
 DIIS: error= 3.47D-05 at cycle   7 NSaved=   7.
 NSaved= 7 IEnMin= 7 EnMin= -282.968367435581     IErMin= 7 ErrMin= 3.47D-05
 ErrMax= 3.47D-05  0.00D+00 EMaxC= 1.00D-01 BMatC= 5.01D-07 BMatP= 4.02D-06
 IDIUse=1 WtCom= 1.00D+00 WtEn= 0.00D+00
 Coeff-Com: -0.200D-03 0.264D-02 0.109D-01-0.160D-01-0.120D+00 0.696D-02
 Coeff-Com:  0.112D+01
 Coeff:     -0.200D-03 0.264D-02 0.109D-01-0.160D-01-0.120D+00 0.696D-02
 Coeff:      0.112D+01
 Gap=     0.428 Goal=   None    Shift=    0.000
 RMSDP=1.51D-06 MaxDP=1.16D-04 DE=-7.51D-06 OVMax= 7.13D-04

 Cycle   8  Pass 1  IDiag  1:
 RMSU=  6.26D-07    CP:  9.47D-01  9.41D-01  8.64D-01  1.13D+00  1.43D+00
                    CP:  1.34D+00  1.34D+00
 E= -282.968368779670     Delta-E=       -0.000001344088 Rises=F Damp=F
 DIIS: error= 1.11D-05 at cycle   8 NSaved=   8.
 NSaved= 8 IEnMin= 8 EnMin= -282.968368779670     IErMin= 8 ErrMin= 1.11D-05
 ErrMax= 1.11D-05  0.00D+00 EMaxC= 1.00D-01 BMatC= 6.90D-08 BMatP= 5.01D-07
 IDIUse=1 WtCom= 1.00D+00 WtEn= 0.00D+00
 Coeff-Com: -0.161D-03 0.112D-02 0.429D-02 0.636D-02-0.296D-02-0.117D+00
 Coeff-Com: -0.152D+00 0.126D+01
 Coeff:     -0.161D-03 0.112D-02 0.429D-02 0.636D-02-0.296D-02-0.117D+00
 Coeff:     -0.152D+00 0.126D+01
 Gap=     0.428 Goal=   None    Shift=    0.000
 RMSDP=6.39D-07 MaxDP=5.36D-05 DE=-1.34D-06 OVMax= 3.03D-04

 Cycle   9  Pass 1  IDiag  1:
 RMSU=  2.34D-07    CP:  9.47D-01  9.41D-01  8.64D-01  1.13D+00  1.44D+00
                    CP:  1.38D+00  1.55D+00  1.54D+00
 E= -282.968368981018     Delta-E=       -0.000000201349 Rises=F Damp=F
 DIIS: error= 3.29D-06 at cycle   9 NSaved=   9.
 NSaved= 9 IEnMin= 9 EnMin= -282.968368981018     IErMin= 9 ErrMin= 3.29D-06
 ErrMax= 3.29D-06  0.00D+00 EMaxC= 1.00D-01 BMatC= 8.61D-09 BMatP= 6.90D-08
 IDIUse=1 WtCom= 1.00D+00 WtEn= 0.00D+00
 Coeff-Com: -0.917D-06-0.146D-03-0.591D-03 0.201D-02 0.157D-01-0.180D-01
 Coeff-Com: -0.153D+00 0.175D+00 0.979D+00
 Coeff:     -0.917D-06-0.146D-03-0.591D-03 0.201D-02 0.157D-01-0.180D-01
 Coeff:     -0.153D+00 0.175D+00 0.979D+00
 Gap=     0.428 Goal=   None    Shift=    0.000
 RMSDP=1.78D-07 MaxDP=1.54D-05 DE=-2.01D-07 OVMax= 8.43D-05

 Cycle  10  Pass 1  IDiag  1:
 RMSU=  9.02D-08    CP:  9.47D-01  9.41D-01  8.64D-01  1.13D+00  1.44D+00
                    CP:  1.39D+00  1.58D+00  1.73D+00  1.26D+00
 E= -282.968368999759     Delta-E=       -0.000000018741 Rises=F Damp=F
 DIIS: error= 1.18D-06 at cycle  10 NSaved=  10.
 NSaved=10 IEnMin=10 EnMin= -282.968368999759     IErMin=10 ErrMin= 1.18D-06
 ErrMax= 1.18D-06  0.00D+00 EMaxC= 1.00D-01 BMatC= 1.06D-09 BMatP= 8.61D-09
 IDIUse=1 WtCom= 1.00D+00 WtEn= 0.00D+00
 Coeff-Com:  0.248D-04-0.200D-03-0.718D-03-0.118D-02 0.256D-02 0.162D-01
 Coeff-Com:  0.106D-01-0.183D+00 0.993D-01 0.106D+01
 Coeff:      0.248D-04-0.200D-03-0.718D-03-0.118D-02 0.256D-02 0.162D-01
 Coeff:      0.106D-01-0.183D+00 0.993D-01 0.106D+01
 Gap=     0.428 Goal=   None    Shift=    0.000
 RMSDP=7.37D-08 MaxDP=6.21D-06 DE=-1.87D-08 OVMax= 2.72D-05

 Cycle  11  Pass 1  IDiag  1:
 RMSU=  2.56D-08    CP:  9.47D-01  9.41D-01  8.64D-01  1.13D+00  1.44D+00
                    CP:  1.39D+00  1.59D+00  1.78D+00  1.48D+00  1.25D+00
 E= -282.968369002075     Delta-E=       -0.000000002316 Rises=F Damp=F
 DIIS: error= 3.15D-07 at cycle  11 NSaved=  11.
 NSaved=11 IEnMin=11 EnMin= -282.968369002075     IErMin=11 ErrMin= 3.15D-07
 ErrMax= 3.15D-07  0.00D+00 EMaxC= 1.00D-01 BMatC= 6.66D-11 BMatP= 1.06D-09
 IDIUse=1 WtCom= 1.00D+00 WtEn= 0.00D+00
 Coeff-Com: -0.662D-06 0.146D-04 0.858D-04-0.129D-03-0.101D-02-0.598D-04
 Coeff-Com:  0.101D-01 0.269D-02-0.906D-01-0.944D-01 0.117D+01
 Coeff:     -0.662D-06 0.146D-04 0.858D-04-0.129D-03-0.101D-02-0.598D-04
 Coeff:      0.101D-01 0.269D-02-0.906D-01-0.944D-01 0.117D+01
 Gap=     0.428 Goal=   None    Shift=    0.000
 RMSDP=2.02D-08 MaxDP=1.34D-06 DE=-2.32D-09 OVMax= 5.32D-06

 Cycle  12  Pass 1  IDiag  1:
 RMSU=  7.97D-09    CP:  9.47D-01  9.41D-01  8.64D-01  1.13D+00  1.44D+00
                    CP:  1.39D+00  1.59D+00  1.78D+00  1.51D+00  1.39D+00
                    CP:  1.35D+00
 E= -282.968369002228     Delta-E=       -0.000000000153 Rises=F Damp=F
 DIIS: error= 7.59D-08 at cycle  12 NSaved=  12.
 NSaved=12 IEnMin=12 EnMin= -282.968369002228     IErMin=12 ErrMin= 7.59D-08
 ErrMax= 7.59D-08  0.00D+00 EMaxC= 1.00D-01 BMatC= 3.31D-12 BMatP= 6.66D-11
 IDIUse=1 WtCom= 1.00D+00 WtEn= 0.00D+00
 Coeff-Com: -0.145D-05 0.112D-04 0.409D-04 0.718D-04-0.870D-04-0.104D-02
 Coeff-Com: -0.166D-02 0.136D-01-0.460D-02-0.639D-01-0.423D-01 0.110D+01
 Coeff:     -0.145D-05 0.112D-04 0.409D-04 0.718D-04-0.870D-04-0.104D-02
 Coeff:     -0.166D-02 0.136D-01-0.460D-02-0.639D-01-0.423D-01 0.110D+01
 Gap=     0.428 Goal=   None    Shift=    0.000
 RMSDP=4.75D-09 MaxDP=2.99D-07 DE=-1.53D-10 OVMax= 9.75D-07

 SCF Done:  E(RHF) =  -282.968369002     A.U. after   12 cycles
            NFock= 12  Conv=0.48D-08     -V/T= 2.0011
 KE= 2.826679640715D+02 PE=-1.027557029458D+03 EE= 2.813663716557D+02
 Leave Link  502 at Sat Jan 16 11:42:27 2021, MaxMem= 13421772800 cpu:            8804.1 elap:             315.1
 (Enter /data2/software/Gaussian/g16_from_xuruiqin/g16/l801.exe)
 ExpMin= 2.36D-02 ExpMax= 6.14D+04 ExpMxC= 5.91D+02 IAcc=3 IRadAn=         5 AccDes= 0.00D+00
 HarFok:  IExCor=  205 AccDes= 0.00D+00 IRadAn=         5 IDoV=-2 UseB2=F ITyADJ=14
 ICtDFT= 12500011 ScaDFX=  1.000000  1.000000  1.000000  1.000000
 DSYEVD-2 returned Info=         161 IAlg= 4 N=    80 NDim=    80 NE2=   167756265 trying  DSYEV.
 Largest valence mixing into a core orbital is  1.87D-04
 Largest core mixing into a valence orbital is  2.99D-05
 Range of M.O.s used for correlation:     6   630
 NBasis=   630 NAE=    20 NBE=    20 NFC=     5 NFV=     0
 NROrb=    625 NOA=    15 NOB=    15 NVA=   610 NVB=   610

 **** Warning!!: The largest alpha MO coefficient is  0.95348979D+02

 Leave Link  801 at Sat Jan 16 11:42:27 2021, MaxMem= 13421772800 cpu:               9.1 elap:               0.4
 (Enter /data2/software/Gaussian/g16_from_xuruiqin/g16/l906.exe)
 FulOut=F Deriv=F AODrv=F NAtomX=    10
   MMem=          62  MDisk=          15 MDiskD=          15
  W3Min=     7320000 MinDsk=    11071900 NBas6D=         800
 NBas2D=      323235    NTT=      320400    LW2=     4508827
    MDV= 13420042113 MDiskM=       37272 NBas2p=      315200
 Fully direct method using O(OVN) memory.
 IMap=   1   2   3   4   5   6   7   8   9  10  11  12  13  14  15
 JobTyp=1 Pass  1:  I=   1 to  15 NPSUse= 28 ParTrn=T ParDer=T DoDerP=F.
 Spin components of T(2) and E(2):
     alpha-alpha T2 =       0.3654401771D-01 E2=     -0.1328773055D+00
     alpha-beta  T2 =       0.2053654112D+00 E2=     -0.8263448024D+00
     beta-beta   T2 =       0.3654401771D-01 E2=     -0.1328773055D+00
 The integrals were generated   1 times.
 ANorm=    0.1130687157D+01
 E2 =    -0.1092099413D+01 EUMP2 =    -0.28406046841560D+03
 Leave Link  906 at Sat Jan 16 11:51:30 2021, MaxMem= 13421772800 cpu:           15198.2 elap:             542.6
 (Enter /data2/software/Gaussian/g16_from_xuruiqin/g16/l601.exe)
 Copying SCF densities to generalized density rwf, IOpCl= 0 IROHF=0.

 **********************************************************************

            Population analysis using the SCF Density.

 **********************************************************************

 Orbital symmetries:
       Occupied  (A) (A) (A) (A) (A) (A) (A) (A) (A) (A) (A) (A)
                 (A) (A) (A) (A) (A) (A) (A) (A)
       Virtual   (A) (A) (A) (A) (A) (A) (A) (A) (A) (A) (A) (A)
                 (A) (A) (A) (A) (A) (A) (A) (A) (A) (A) (A) (A)
                 (A) (A) (A) (A) (A) (A) (A) (A) (A) (A) (A) (A)
                 (A) (A) (A) (A) (A) (A) (A) (A) (A) (A) (A) (A)
                 (A) (A) (A) (A) (A) (A) (A) (A) (A) (A) (A) (A)
                 (A) (A) (A) (A) (A) (A) (A) (A) (A) (A) (A) (A)
                 (A) (A) (A) (A) (A) (A) (A) (A) (A) (A) (A) (A)
                 (A) (A) (A) (A) (A) (A) (A) (A) (A) (A) (A) (A)
                 (A) (A) (A) (A) (A) (A) (A) (A) (A) (A) (A) (A)
                 (A) (A) (A) (A) (A) (A) (A) (A) (A) (A) (A) (A)
                 (A) (A) (A) (A) (A) (A) (A) (A) (A) (A) (A) (A)
                 (A) (A) (A) (A) (A) (A) (A) (A) (A) (A) (A) (A)
                 (A) (A) (A) (A) (A) (A) (A) (A) (A) (A) (A) (A)
                 (A) (A) (A) (A) (A) (A) (A) (A) (A) (A) (A) (A)
                 (A) (A) (A) (A) (A) (A) (A) (A) (A) (A) (A) (A)
                 (A) (A) (A) (A) (A) (A) (A) (A) (A) (A) (A) (A)
                 (A) (A) (A) (A) (A) (A) (A) (A) (A) (A) (A) (A)
                 (A) (A) (A) (A) (A) (A) (A) (A) (A) (A) (A) (A)
                 (A) (A) (A) (A) (A) (A) (A) (A) (A) (A) (A) (A)
                 (A) (A) (A) (A) (A) (A) (A) (A) (A) (A) (A) (A)
                 (A) (A) (A) (A) (A) (A) (A) (A) (A) (A) (A) (A)
                 (A) (A) (A) (A) (A) (A) (A) (A) (A) (A) (A) (A)
                 (A) (A) (A) (A) (A) (A) (A) (A) (A) (A) (A) (A)
                 (A) (A) (A) (A) (A) (A) (A) (A) (A) (A) (A) (A)
                 (A) (A) (A) (A) (A) (A) (A) (A) (A) (A) (A) (A)
                 (A) (A) (A) (A) (A) (A) (A) (A) (A) (A) (A) (A)
                 (A) (A) (A) (A) (A) (A) (A) (A) (A) (A) (A) (A)
                 (A) (A) (A) (A) (A) (A) (A) (A) (A) (A) (A) (A)
                 (A) (A) (A) (A) (A) (A) (A) (A) (A) (A) (A) (A)
                 (A) (A) (A) (A) (A) (A) (A) (A) (A) (A) (A) (A)
                 (A) (A) (A) (A) (A) (A) (A) (A) (A) (A) (A) (A)
                 (A) (A) (A) (A) (A) (A) (A) (A) (A) (A) (A) (A)
                 (A) (A) (A) (A) (A) (A) (A) (A) (A) (A) (A) (A)
                 (A) (A) (A) (A) (A) (A) (A) (A) (A) (A) (A) (A)
                 (A) (A) (A) (A) (A) (A) (A) (A) (A) (A) (A) (A)
                 (A) (A) (A) (A) (A) (A) (A) (A) (A) (A) (A) (A)
                 (A) (A) (A) (A) (A) (A) (A) (A) (A) (A) (A) (A)
                 (A) (A) (A) (A) (A) (A) (A) (A) (A) (A) (A) (A)
                 (A) (A) (A) (A) (A) (A) (A) (A) (A) (A) (A) (A)
                 (A) (A) (A) (A) (A) (A) (A) (A) (A) (A) (A) (A)
                 (A) (A) (A) (A) (A) (A) (A) (A) (A) (A) (A) (A)
                 (A) (A) (A) (A) (A) (A) (A) (A) (A) (A) (A) (A)
                 (A) (A) (A) (A) (A) (A) (A) (A) (A) (A) (A) (A)
                 (A) (A) (A) (A) (A) (A) (A) (A) (A) (A) (A) (A)
                 (A) (A) (A) (A) (A) (A) (A) (A) (A) (A) (A) (A)
                 (A) (A) (A) (A) (A) (A) (A) (A) (A) (A) (A) (A)
                 (A) (A) (A) (A) (A) (A) (A) (A) (A) (A) (A) (A)
                 (A) (A) (A) (A) (A) (A) (A) (A) (A) (A) (A) (A)
                 (A) (A) (A) (A) (A) (A) (A) (A) (A) (A) (A) (A)
                 (A) (A) (A) (A) (A) (A) (A) (A) (A) (A) (A) (A)
                 (A) (A) (A) (A) (A) (A) (A) (A) (A) (A)
 The electronic state is 1-A.
 Alpha  occ. eigenvalues --  -20.61764 -20.55410 -15.54748 -11.39006 -11.27685
 Alpha  occ. eigenvalues --   -1.47524  -1.37173  -1.19497  -0.98324  -0.81612
 Alpha  occ. eigenvalues --   -0.72376  -0.71209  -0.67255  -0.63423  -0.60435
 Alpha  occ. eigenvalues --   -0.57832  -0.56589  -0.49238  -0.46291  -0.40425
 Alpha virt. eigenvalues --    0.02354   0.03075   0.03995   0.04268   0.05518
 Alpha virt. eigenvalues --    0.07848   0.08276   0.08609   0.09749   0.10818
 Alpha virt. eigenvalues --    0.10879   0.12538   0.13434   0.13504   0.14544
 Alpha virt. eigenvalues --    0.15208   0.15730   0.16036   0.16426   0.17732
 Alpha virt. eigenvalues --    0.19315   0.20575   0.21310   0.21605   0.21958
 Alpha virt. eigenvalues --    0.22999   0.23474   0.23605   0.25385   0.26556
 Alpha virt. eigenvalues --    0.28167   0.29044   0.29537   0.29757   0.29959
 Alpha virt. eigenvalues --    0.31442   0.32027   0.32386   0.32665   0.33263
 Alpha virt. eigenvalues --    0.34207   0.34789   0.35772   0.36431   0.37043
 Alpha virt. eigenvalues --    0.37826   0.39009   0.39373   0.40554   0.41112
 Alpha virt. eigenvalues --    0.42155   0.42990   0.43944   0.44341   0.44879
 Alpha virt. eigenvalues --    0.45582   0.47163   0.47774   0.49576   0.51161
 Alpha virt. eigenvalues --    0.51721   0.52455   0.54901   0.55017   0.55960
 Alpha virt. eigenvalues --    0.57197   0.58638   0.59161   0.60855   0.61422
 Alpha virt. eigenvalues --    0.62788   0.63855   0.64254   0.65048   0.66256
 Alpha virt. eigenvalues --    0.67158   0.67369   0.68079   0.68735   0.69929
 Alpha virt. eigenvalues --    0.70748   0.71299   0.72282   0.72691   0.74164
 Alpha virt. eigenvalues --    0.74392   0.75038   0.76355   0.76849   0.77654
 Alpha virt. eigenvalues --    0.78206   0.78855   0.79424   0.80828   0.81700
 Alpha virt. eigenvalues --    0.82456   0.83567   0.83723   0.84928   0.86193
 Alpha virt. eigenvalues --    0.86997   0.87255   0.88867   0.89540   0.90010
 Alpha virt. eigenvalues --    0.91973   0.92660   0.94548   0.94718   0.95652
 Alpha virt. eigenvalues --    0.97119   0.97837   0.98730   0.99416   1.00381
 Alpha virt. eigenvalues --    1.00847   1.04171   1.04678   1.05134   1.06705
 Alpha virt. eigenvalues --    1.07313   1.08049   1.09951   1.11347   1.11719
 Alpha virt. eigenvalues --    1.11873   1.15964   1.17297   1.18027   1.18733
 Alpha virt. eigenvalues --    1.20638   1.21427   1.22080   1.24080   1.24970
 Alpha virt. eigenvalues --    1.25510   1.27538   1.29401   1.30844   1.33008
 Alpha virt. eigenvalues --    1.36030   1.37112   1.37923   1.39026   1.41303
 Alpha virt. eigenvalues --    1.42292   1.43061   1.44119   1.46657   1.48474
 Alpha virt. eigenvalues --    1.49410   1.50766   1.51439   1.52433   1.53165
 Alpha virt. eigenvalues --    1.55437   1.56459   1.57255   1.58781   1.59688
 Alpha virt. eigenvalues --    1.60400   1.61279   1.63087   1.63384   1.64638
 Alpha virt. eigenvalues --    1.66479   1.67987   1.70010   1.70542   1.72704
 Alpha virt. eigenvalues --    1.73317   1.73892   1.74960   1.76077   1.77307
 Alpha virt. eigenvalues --    1.79071   1.80263   1.81409   1.81879   1.83116
 Alpha virt. eigenvalues --    1.83920   1.85306   1.86549   1.87006   1.87832
 Alpha virt. eigenvalues --    1.90192   1.90456   1.91210   1.91373   1.93178
 Alpha virt. eigenvalues --    1.95307   1.96617   1.97111   1.98070   1.99309
 Alpha virt. eigenvalues --    2.00178   2.01526   2.02541   2.03521   2.03950
 Alpha virt. eigenvalues --    2.04907   2.05659   2.07609   2.07962   2.09889
 Alpha virt. eigenvalues --    2.10628   2.12430   2.13272   2.14080   2.15820
 Alpha virt. eigenvalues --    2.16748   2.18153   2.18348   2.19521   2.20515
 Alpha virt. eigenvalues --    2.21452   2.22118   2.23610   2.24654   2.25218
 Alpha virt. eigenvalues --    2.26460   2.28705   2.29451   2.30299   2.32991
 Alpha virt. eigenvalues --    2.33477   2.34641   2.37445   2.38895   2.40160
 Alpha virt. eigenvalues --    2.40769   2.42486   2.45092   2.45789   2.46487
 Alpha virt. eigenvalues --    2.49189   2.50726   2.54272   2.54845   2.56448
 Alpha virt. eigenvalues --    2.58556   2.59250   2.59524   2.61950   2.64016
 Alpha virt. eigenvalues --    2.67271   2.69238   2.71093   2.72241   2.76417
 Alpha virt. eigenvalues --    2.76642   2.78567   2.80358   2.84396   2.85331
 Alpha virt. eigenvalues --    2.85580   2.88453   2.88817   2.90477   2.91467
 Alpha virt. eigenvalues --    2.94167   2.94637   2.96822   2.98124   3.00233
 Alpha virt. eigenvalues --    3.01728   3.03292   3.04680   3.05643   3.08513
 Alpha virt. eigenvalues --    3.09865   3.11955   3.13682   3.15594   3.16527
 Alpha virt. eigenvalues --    3.18057   3.19970   3.20382   3.23111   3.24223
 Alpha virt. eigenvalues --    3.27142   3.27240   3.31059   3.33135   3.34416
 Alpha virt. eigenvalues --    3.35102   3.38023   3.40330   3.40750   3.43523
 Alpha virt. eigenvalues --    3.45794   3.48310   3.48622   3.49786   3.53371
 Alpha virt. eigenvalues --    3.57370   3.59754   3.64414   3.65300   3.67673
 Alpha virt. eigenvalues --    3.70254   3.71250   3.72536   3.74976   3.77845
 Alpha virt. eigenvalues --    3.79513   3.81852   3.84996   3.88581   3.89082
 Alpha virt. eigenvalues --    3.89988   3.92662   3.93690   3.97794   3.99406
 Alpha virt. eigenvalues --    4.01193   4.03751   4.03836   4.05043   4.08659
 Alpha virt. eigenvalues --    4.09374   4.10292   4.14694   4.17732   4.17965
 Alpha virt. eigenvalues --    4.19437   4.20925   4.21172   4.23456   4.24112
 Alpha virt. eigenvalues --    4.27208   4.28092   4.31784   4.32699   4.33990
 Alpha virt. eigenvalues --    4.35535   4.36864   4.39496   4.40803   4.41545
 Alpha virt. eigenvalues --    4.44118   4.46461   4.47475   4.50051   4.51631
 Alpha virt. eigenvalues --    4.52610   4.55194   4.56172   4.56291   4.58838
 Alpha virt. eigenvalues --    4.60424   4.62203   4.63091   4.67149   4.68175
 Alpha virt. eigenvalues --    4.71596   4.71831   4.72858   4.75617   4.76470
 Alpha virt. eigenvalues --    4.79303   4.82421   4.83735   4.85885   4.88630
 Alpha virt. eigenvalues --    4.89884   4.92078   4.94685   4.98099   4.98129
 Alpha virt. eigenvalues --    5.04792   5.05612   5.09103   5.09957   5.15449
 Alpha virt. eigenvalues --    5.18031   5.24142   5.25289   5.27119   5.28242
 Alpha virt. eigenvalues --    5.35425   5.37137   5.40065   5.41969   5.46442
 Alpha virt. eigenvalues --    5.48721   5.51195   5.58416   5.60466   5.63461
 Alpha virt. eigenvalues --    5.64387   5.69973   5.73652   5.75584   5.79955
 Alpha virt. eigenvalues --    5.83930   5.86660   5.93068   5.96622   6.01635
 Alpha virt. eigenvalues --    6.17587   6.21042   6.21220   6.24111   6.31645
 Alpha virt. eigenvalues --    6.39317   6.40883   6.46787   6.51639   6.52826
 Alpha virt. eigenvalues --    6.58804   6.62385   6.65174   6.66907   6.74988
 Alpha virt. eigenvalues --    6.78825   6.80202   6.83961   6.86845   6.89510
 Alpha virt. eigenvalues --    6.95323   6.96817   6.99749   6.99967   7.02288
 Alpha virt. eigenvalues --    7.05184   7.09231   7.09972   7.11111   7.13091
 Alpha virt. eigenvalues --    7.17033   7.19301   7.21563   7.25267   7.28994
 Alpha virt. eigenvalues --    7.31863   7.33935   7.39190   7.42116   7.43087
 Alpha virt. eigenvalues --    7.50379   7.52575   7.55299   7.58036   7.63359
 Alpha virt. eigenvalues --    7.69180   7.70555   7.75871   7.77829   7.80203
 Alpha virt. eigenvalues --    7.81766   7.83040   7.88924   7.91893   7.92238
 Alpha virt. eigenvalues --    7.95684   7.97621   8.02830   8.05754   8.07719
 Alpha virt. eigenvalues --    8.08806   8.10980   8.12582   8.14041   8.16593
 Alpha virt. eigenvalues --    8.19300   8.22786   8.25640   8.32232   8.39024
 Alpha virt. eigenvalues --    8.40884   8.45464   8.50619   8.52185   8.55130
 Alpha virt. eigenvalues --    8.58525   8.61211   8.62578   8.64265   8.67380
 Alpha virt. eigenvalues --    8.72758   8.75118   8.79614   8.80777   8.82594
 Alpha virt. eigenvalues --    8.87034   8.93712   8.94169   8.96854   9.00576
 Alpha virt. eigenvalues --    9.01821   9.04181   9.08856   9.10365   9.13439
 Alpha virt. eigenvalues --    9.15762   9.20563   9.23880   9.27489   9.29131
 Alpha virt. eigenvalues --    9.33529   9.34799   9.37919   9.46250   9.47907
 Alpha virt. eigenvalues --    9.50835   9.58047   9.62509   9.66251   9.68035
 Alpha virt. eigenvalues --    9.72429   9.78380   9.80338   9.82309   9.87371
 Alpha virt. eigenvalues --    9.90678   9.92466   9.98945  10.02689  10.07354
 Alpha virt. eigenvalues --   10.07781  10.12136  10.13562  10.15505  10.20054
 Alpha virt. eigenvalues --   10.24461  10.27774  10.30564  10.35959  10.43238
 Alpha virt. eigenvalues --   10.52258  10.55955  10.61856  10.63131  10.70726
 Alpha virt. eigenvalues --   10.79094  10.86877  10.91103  10.95785  10.98821
 Alpha virt. eigenvalues --   11.00875  11.03201  11.07843  11.10476  11.14092
 Alpha virt. eigenvalues --   11.15435  11.19967  11.22988  11.23989  11.33656
 Alpha virt. eigenvalues --   11.36096  11.37143  11.37894  11.42305  11.44010
 Alpha virt. eigenvalues --   11.48453  11.49796  11.57569  11.59710  11.65134
 Alpha virt. eigenvalues --   11.66972  11.77268  11.86445  11.90629  11.95632
 Alpha virt. eigenvalues --   11.96995  12.11992  12.18751  12.20517  12.25382
 Alpha virt. eigenvalues --   12.34895  12.36934  12.41216  12.43793  12.44609
 Alpha virt. eigenvalues --   12.49001  12.69870  12.74627  12.80035  12.81035
 Alpha virt. eigenvalues --   12.90728  12.92542  12.97720  13.05348  13.19721
 Alpha virt. eigenvalues --   13.25513  13.27782  13.28561  13.35907  13.39589
 Alpha virt. eigenvalues --   13.45860  13.50731  13.57951  13.86720  14.16404
 Alpha virt. eigenvalues --   14.20293  14.35777  14.59688  14.77775  14.91632
 Alpha virt. eigenvalues --   15.05317  15.09141  15.21417  15.26107  17.33682
 Alpha virt. eigenvalues --   26.61760  28.58913  36.48206  44.17854  45.79707
          Condensed to atoms (all electrons):
               1          2          3          4          5          6
     1  C    4.642273   0.117927   0.198420   0.022996   0.163651  -0.015390
     2  O    0.117927   8.354873  -0.046873   0.216204   0.017676   0.000849
     3  O    0.198420  -0.046873   8.642526  -0.038333   0.031642  -0.044544
     4  H    0.022996   0.216204  -0.038333   0.459196   0.000069   0.003111
     5  C    0.163651   0.017676   0.031642   0.000069   5.028096   0.242942
     6  N   -0.015390   0.000849  -0.044544   0.003111   0.242942   6.922922
     7  H   -0.032555   0.014513   0.008902  -0.005513   0.397625  -0.018625
     8  H   -0.025258  -0.008032   0.001263  -0.001177   0.426549  -0.065334
     9  H    0.023206  -0.000595  -0.000492   0.000227  -0.015787   0.326705
    10  H   -0.008769  -0.002322  -0.004844   0.001687   0.000060   0.319078
               7          8          9         10
     1  C   -0.032555  -0.025258   0.023206  -0.008769
     2  O    0.014513  -0.008032  -0.000595  -0.002322
     3  O    0.008902   0.001263  -0.000492  -0.004844
     4  H   -0.005513  -0.001177   0.000227   0.001687
     5  C    0.397625   0.426549  -0.015787   0.000060
     6  N   -0.018625  -0.065334   0.326705   0.319078
     7  H    0.335977   0.011900  -0.005344   0.003697
     8  H    0.011900   0.362301   0.000992   0.003779
     9  H   -0.005344   0.000992   0.439364  -0.014214
    10  H    0.003697   0.003779  -0.014214   0.409129
 Mulliken charges:
               1
     1  C    0.913498
     2  O   -0.664220
     3  O   -0.747666
     4  H    0.341532
     5  C   -0.292523
     6  N   -0.671714
     7  H    0.289423
     8  H    0.293016
     9  H    0.245936
    10  H    0.292718
 Sum of Mulliken charges =  -0.00000
 Mulliken charges with hydrogens summed into heavy atoms:
               1
     1  C    0.913498
     2  O   -0.322688
     3  O   -0.747666
     5  C    0.289916
     6  N   -0.133060
 Electronic spatial extent (au):  <R**2>=            414.5835
 Charge=             -0.0000 electrons
 Dipole moment (field-independent basis, Debye):
    X=              0.0729    Y=             -1.8018    Z=              1.3414  Tot=              2.2474
 Quadrupole moment (field-independent basis, Debye-Ang):
   XX=            -23.6715   YY=            -33.2681   ZZ=            -30.5044
   XY=              1.2275   XZ=             -3.3760   YZ=              0.1016
 Traceless Quadrupole moment (field-independent basis, Debye-Ang):
   XX=              5.4765   YY=             -4.1201   ZZ=             -1.3564
   XY=              1.2275   XZ=             -3.3760   YZ=              0.1016
 Octapole moment (field-independent basis, Debye-Ang**2):
  XXX=             14.6473  YYY=             -2.9216  ZZZ=              1.8811  XYY=             -6.3564
  XXY=              2.4273  XXZ=              6.9213  XZZ=              4.3604  YZZ=             -0.5934
  YYZ=             -0.0657  XYZ=             -0.7095
 Hexadecapole moment (field-independent basis, Debye-Ang**3):
 XXXX=           -243.6214 YYYY=           -142.3839 ZZZZ=            -37.7839 XXXY=              8.5517
 XXXZ=            -20.5050 YYYX=             -5.1399 YYYZ=              1.7193 ZZZX=             -4.4272
 ZZZY=              0.1341 XXYY=            -78.6746 XXZZ=            -67.7089 YYZZ=            -28.4891
 XXYZ=              0.2851 YYXZ=             -1.1416 ZZXY=              1.1645
 N-N= 1.805543247289D+02 E-N=-1.027557031711D+03  KE= 2.826679640715D+02
 Leave Link  601 at Sat Jan 16 11:51:30 2021, MaxMem= 13421772800 cpu:               5.4 elap:               0.3
 (Enter /data2/software/Gaussian/g16_from_xuruiqin/g16/l9999.exe)
 Unable to Open any file for archive entry.
 1\1\GINC-CPU01\SP\RMP2-FC\Aug-CC-pVQZ\C2H5N1O2\SHUCHONG\16-Jan-2021\0\
 \#p MP2 aug-cc-pvqz\\start best geom PCCP paper\\0,1\C\O,1,1.34608\O,1
 ,1.20274,2,123.21263\H,2,0.96513,1,106.9601,3,1.12063,0\C,1,1.50353,3,
 125.17128,2,178.03326,0\N,5,1.44879,1,110.05161,3,18.04528,0\H,5,1.096
 82,1,105.6396,3,-106.18775,0\H,5,1.08963,1,108.30581,3,139.44601,0\H,6
 ,1.00859,5,111.64684,1,-155.36007,0\H,6,1.01187,5,110.28053,1,-34.3155
 5,0\\Version=ES64L-G16RevC.01\State=1-A\HF=-282.968369\MP2=-284.060468
 4\RMSD=4.750e-09\PG=C01 [X(C2H5N1O2)]\\@
 The archive entry for this job was punched.


 ... A MOLECULAR SYSTEM ... (PASSES) ... FROM ONE STATE OF EQUILIBRIUM 
 TO ANOTHER ... BY MEANS OF ALL POSSIBLE INTERMEDIATE PATHS, 
 BUT THE PATH MOST ECONOMICAL OF ENERGY WILL BE THE MORE OFTEN TRAVELED.

                      -- HENRY EYRING, 1945
 Job cpu time:       0 days  6 hours 42 minutes 23.9 seconds.
 Elapsed time:       0 days  0 hours 14 minutes 23.3 seconds.
 File lengths (MBytes):  RWF=    212 Int=      0 D2E=      0 Chk=     27 Scr=      1
 Normal termination of Gaussian 16 at Sat Jan 16 11:51:32 2021.
