 Entering Gaussian System, Link 0=g16
 Input=tct_Best_geom_MP2_aug_cc-pVQZ.gjf
 Output=tct_Best_geom_MP2_aug_cc-pVQZ.log
 Initial command:
 /data2/software/Gaussian/g16_from_xuruiqin/g16/l1.exe "/home/shuchong/scratch/Gau-39566.inp" -scrdir="/home/shuchong/scratch/"
 Entering Link 1 = /data2/software/Gaussian/g16_from_xuruiqin/g16/l1.exe PID=     39567.
  
 Copyright (c) 1988-2019, Gaussian, Inc.  All Rights Reserved.
  
 This is part of the Gaussian(R) 16 program.  It is based on
 the Gaussian(R) 09 system (copyright 2009, Gaussian, Inc.),
 the Gaussian(R) 03 system (copyright 2003, Gaussian, Inc.),
 the Gaussian(R) 98 system (copyright 1998, Gaussian, Inc.),
 the Gaussian(R) 94 system (copyright 1995, Gaussian, Inc.),
 the Gaussian 92(TM) system (copyright 1992, Gaussian, Inc.),
 the Gaussian 90(TM) system (copyright 1990, Gaussian, Inc.),
 the Gaussian 88(TM) system (copyright 1988, Gaussian, Inc.),
 the Gaussian 86(TM) system (copyright 1986, Carnegie Mellon
 University), and the Gaussian 82(TM) system (copyright 1983,
 Carnegie Mellon University). Gaussian is a federally registered
 trademark of Gaussian, Inc.
  
 This software contains proprietary and confidential information,
 including trade secrets, belonging to Gaussian, Inc.
  
 This software is provided under written license and may be
 used, copied, transmitted, or stored only in accord with that
 written license.
  
 The following legend is applicable only to US Government
 contracts under FAR:
  
                    RESTRICTED RIGHTS LEGEND
  
 Use, reproduction and disclosure by the US Government is
 subject to restrictions as set forth in subparagraphs (a)
 and (c) of the Commercial Computer Software - Restricted
 Rights clause in FAR 52.227-19.
  
 Gaussian, Inc.
 340 Quinnipiac St., Bldg. 40, Wallingford CT 06492
  
  
 ---------------------------------------------------------------
 Warning -- This program may not be used in any manner that
 competes with the business of Gaussian, Inc. or will provide
 assistance to any competitor of Gaussian, Inc.  The licensee
 of this program is prohibited from giving any competitor of
 Gaussian, Inc. access to this program.  By using this program,
 the user acknowledges that Gaussian, Inc. is engaged in the
 business of creating and licensing software in the field of
 computational chemistry and represents and warrants to the
 licensee that it is not a competitor of Gaussian, Inc. and that
 it will not use this program in any manner prohibited above.
 ---------------------------------------------------------------
  

 Cite this work as:
 Gaussian 16, Revision C.01,
 M. J. Frisch, G. W. Trucks, H. B. Schlegel, G. E. Scuseria, 
 M. A. Robb, J. R. Cheeseman, G. Scalmani, V. Barone, 
 G. A. Petersson, H. Nakatsuji, X. Li, M. Caricato, A. V. Marenich, 
 J. Bloino, B. G. Janesko, R. Gomperts, B. Mennucci, H. P. Hratchian, 
 J. V. Ortiz, A. F. Izmaylov, J. L. Sonnenberg, D. Williams-Young, 
 F. Ding, F. Lipparini, F. Egidi, J. Goings, B. Peng, A. Petrone, 
 T. Henderson, D. Ranasinghe, V. G. Zakrzewski, J. Gao, N. Rega, 
 G. Zheng, W. Liang, M. Hada, M. Ehara, K. Toyota, R. Fukuda, 
 J. Hasegawa, M. Ishida, T. Nakajima, Y. Honda, O. Kitao, H. Nakai, 
 T. Vreven, K. Throssell, J. A. Montgomery, Jr., J. E. Peralta, 
 F. Ogliaro, M. J. Bearpark, J. J. Heyd, E. N. Brothers, K. N. Kudin, 
 V. N. Staroverov, T. A. Keith, R. Kobayashi, J. Normand, 
 K. Raghavachari, A. P. Rendell, J. C. Burant, S. S. Iyengar, 
 J. Tomasi, M. Cossi, J. M. Millam, M. Klene, C. Adamo, R. Cammi, 
 J. W. Ochterski, R. L. Martin, K. Morokuma, O. Farkas, 
 J. B. Foresman, and D. J. Fox, Gaussian, Inc., Wallingford CT, 2019.
 
 ******************************************
 Gaussian 16:  ES64L-G16RevC.01  3-Jul-2019
                16-Jan-2021 
 ******************************************
 %chk=tct_Best_geom_MP2_aug_cc-pVQZ.chk
 %nprocshared=28
 Will use up to   28 processors via shared memory.
 %mem=100GB
 ------------------
 #p MP2 aug-cc-pvqz
 ------------------
 1/38=1,172=1/1;
 2/12=2,17=6,18=5,40=1/2;
 3/5=16,6=2,7=10,11=9,25=1,30=1/1,2,3;
 4//1;
 5/5=2,38=5/2;
 8/10=1/1;
 9/16=-3/6;
 6/7=2,8=2,9=2,10=2/1;
 99/5=1,9=1/99;
 Leave Link    1 at Sat Jan 16 12:01:35 2021, MaxMem= 13421772800 cpu:               2.8 elap:               0.1
 (Enter /data2/software/Gaussian/g16_from_xuruiqin/g16/l101.exe)
 --------------------------
 start best geom PCCP paper
 --------------------------
 Symbolic Z-matrix:
 Charge =  0 Multiplicity = 1
 C
 O                    1    B1
 O                    1    B2       2    A1
 H                    2    B3       1    A2       3    D1       0
 C                    1    B4       3    A3       2    D2       0
 N                    5    B5       1    A4       3    D3       0
 H                    5    B6       1    A5       3    D4       0
 H                    5    B7       1    A6       3    D5       0
 H                    6    B8       5    A7       1    D6       0
 H                    6    B9       5    A8       1    D7       0
       Variables:
  B1                    1.34824                  
  B2                    1.20339                  
  B3                    0.96562                  
  B4                    1.51736                  
  B5                    1.44458                  
  B6                    1.0899                   
  B7                    1.0899                   
  B8                    1.00975                  
  B9                    1.00975                  
  A1                  122.72896                  
  A2                  106.37597                  
  A3                  123.80161                  
  A4                  118.62999                  
  A5                  105.95621                  
  A6                  105.95621                  
  A7                  111.34671                  
  A8                  111.34671                  
  D1                    0.                       
  D2                  180.                       
  D3                  180.                       
  D4                   56.19793                  
  D5                  -56.19793                  
  D6                   59.71795                  
  D7                  -59.71795                  
 
 ITRead=  0  0  0  0  0  0  0  0  0  0
 MicOpt= -1 -1 -1 -1 -1 -1 -1 -1 -1 -1
 NAtoms=     10 NQM=       10 NQMF=       0 NMMI=      0 NMMIF=      0
                NMic=       0 NMicF=      0.
                    Isotopes and Nuclear Properties:
 (Nuclear quadrupole moments (NQMom) in fm**2, nuclear magnetic moments (NMagM)
  in nuclear magnetons)

  Atom         1           2           3           4           5           6           7           8           9          10
 IAtWgt=          12          16          16           1          12          14           1           1           1           1
 AtmWgt=  12.0000000  15.9949146  15.9949146   1.0078250  12.0000000  14.0030740   1.0078250   1.0078250   1.0078250   1.0078250
 NucSpn=           0           0           0           1           0           2           1           1           1           1
 AtZEff=  -0.0000000  -0.0000000  -0.0000000  -0.0000000  -0.0000000  -0.0000000  -0.0000000  -0.0000000  -0.0000000  -0.0000000
 NQMom=    0.0000000   0.0000000   0.0000000   0.0000000   0.0000000   2.0440000   0.0000000   0.0000000   0.0000000   0.0000000
 NMagM=    0.0000000   0.0000000   0.0000000   2.7928460   0.0000000   0.4037610   2.7928460   2.7928460   2.7928460   2.7928460
 AtZNuc=   6.0000000   8.0000000   8.0000000   1.0000000   6.0000000   7.0000000   1.0000000   1.0000000   1.0000000   1.0000000
 Leave Link  101 at Sat Jan 16 12:01:35 2021, MaxMem= 13421772800 cpu:               2.8 elap:               0.1
 (Enter /data2/software/Gaussian/g16_from_xuruiqin/g16/l202.exe)
                          Input orientation:                          
 ---------------------------------------------------------------------
 Center     Atomic      Atomic             Coordinates (Angstroms)
 Number     Number       Type             X           Y           Z
 ---------------------------------------------------------------------
      1          6           0        0.000000    0.000000    0.000000
      2          8           0        0.000000    0.000000    1.348240
      3          8           0        1.012337    0.000000   -0.650632
      4          1           0        0.926448    0.000000    1.620486
      5          6           0       -1.391833    0.000000   -0.604303
      6          7           0       -2.531719    0.000000    0.283092
      7          1           0       -1.434486   -0.870775   -1.258379
      8          1           0       -1.434486    0.870775   -1.258379
      9          1           0       -2.530429    0.812151    0.883095
     10          1           0       -2.530429   -0.812151    0.883095
 ---------------------------------------------------------------------
                    Distance matrix (angstroms):
                    1          2          3          4          5
     1  C    0.000000
     2  O    1.348240   0.000000
     3  O    1.203390   2.240606   0.000000
     4  H    1.866623   0.965621   2.272741   0.000000
     5  C    1.517360   2.397837   2.404616   3.213116   0.000000
     6  N    2.547497   2.746660   3.664993   3.707768   1.444580
     7  H    2.097502   3.100074   2.667311   3.823627   1.089900
     8  H    2.097502   3.100074   2.667311   3.823627   1.089900
     9  H    2.800449   2.697966   3.945009   3.626752   2.041653
    10  H    2.800449   2.697966   3.945009   3.626752   2.041653
                    6          7          8          9         10
     6  N    0.000000
     7  H    2.082859   0.000000
     8  H    2.082859   1.741549   0.000000
     9  H    1.009750   2.935854   2.406333   0.000000
    10  H    1.009750   2.406333   2.935854   1.624303   0.000000
 Stoichiometry    C2H5NO2
 Framework group  CS[SG(C2HNO2),X(H4)]
 Deg. of freedom    15
 Full point group                 CS      NOp   2
 Largest Abelian subgroup         CS      NOp   2
 Largest concise Abelian subgroup CS      NOp   2
                         Standard orientation:                         
 ---------------------------------------------------------------------
 Center     Atomic      Atomic             Coordinates (Angstroms)
 Number     Number       Type             X           Y           Z
 ---------------------------------------------------------------------
      1          6           0       -0.000000    0.635900   -0.000000
      2          8           0       -1.323949    0.381124   -0.000000
      3          8           0        0.447609    1.752947   -0.000000
      4          1           0       -1.766360    1.239435   -0.000000
      5          6           0        0.856429   -0.616662    0.000000
      6          7           0        0.200424   -1.903701    0.000000
      7          1           0        1.506780   -0.534947    0.870775
      8          1           0        1.506780   -0.534947   -0.870775
      9          1           0       -0.389012   -2.015816   -0.812151
     10          1           0       -0.389012   -2.015816    0.812151
 ---------------------------------------------------------------------
 Rotational constants (GHZ):          10.0492564           4.0169293           2.9660702
 Leave Link  202 at Sat Jan 16 12:01:36 2021, MaxMem= 13421772800 cpu:               0.2 elap:               0.0
 (Enter /data2/software/Gaussian/g16_from_xuruiqin/g16/l301.exe)
 Standard basis: Aug-CC-pVQZ (5D, 7F)
 Ernie: Thresh=  0.10000D-02 Tol=  0.10000D-05 Strict=F.
 Ernie:  15 primitive shells out of 270 were deleted.
 There are   487 symmetry adapted cartesian basis functions of A'  symmetry.
 There are   313 symmetry adapted cartesian basis functions of A"  symmetry.
 There are   372 symmetry adapted basis functions of A'  symmetry.
 There are   258 symmetry adapted basis functions of A"  symmetry.
   630 basis functions,   905 primitive gaussians,   800 cartesian basis functions
    20 alpha electrons       20 beta electrons
       nuclear repulsion energy       180.0072559301 Hartrees.
 IExCor=    0 DFT=F Ex=HF Corr=None ExCW=0 ScaHFX=  1.000000
 ScaDFX=  1.000000  1.000000  1.000000  1.000000 ScalE2=  1.000000  1.000000
 IRadAn=      5 IRanWt=     -1 IRanGd=            0 ICorTp=0 IEmpDi=  4
 NAtoms=   10 NActive=   10 NUniq=    8 SFac= 1.56D+00 NAtFMM=   60 NAOKFM=F Big=F
 Integral buffers will be    131072 words long.
 Raffenetti 1 integral format.
 Two-electron integral symmetry is turned on.
 Leave Link  301 at Sat Jan 16 12:01:36 2021, MaxMem= 13421772800 cpu:               1.1 elap:               0.1
 (Enter /data2/software/Gaussian/g16_from_xuruiqin/g16/l302.exe)
 NPDir=0 NMtPBC=     1 NCelOv=     1 NCel=       1 NClECP=     1 NCelD=      1
         NCelK=      1 NCelE2=     1 NClLst=     1 CellRange=     0.0.
 One-electron integrals computed using PRISM.
 One-electron integral symmetry used in STVInt
 NBasis=   630 RedAO= T EigKep=  2.91D-06  NBF=   372   258
 NBsUse=   630 1.00D-06 EigRej= -1.00D+00 NBFU=   372   258
 Leave Link  302 at Sat Jan 16 12:01:37 2021, MaxMem= 13421772800 cpu:              30.6 elap:               1.1
 (Enter /data2/software/Gaussian/g16_from_xuruiqin/g16/l303.exe)
 DipDrv:  MaxL=1.
 Leave Link  303 at Sat Jan 16 12:01:37 2021, MaxMem= 13421772800 cpu:               2.7 elap:               0.1
 (Enter /data2/software/Gaussian/g16_from_xuruiqin/g16/l401.exe)
 ExpMin= 2.36D-02 ExpMax= 6.14D+04 ExpMxC= 5.91D+02 IAcc=3 IRadAn=         5 AccDes= 0.00D+00
 Harris functional with IExCor=  205 and IRadAn=       5 diagonalized for initial guess.
 HarFok:  IExCor=  205 AccDes= 0.00D+00 IRadAn=         5 IDoV= 1 UseB2=F ITyADJ=14
 ICtDFT=  3500011 ScaDFX=  1.000000  1.000000  1.000000  1.000000
 FoFCou: FMM=F IPFlag=           0 FMFlag=      100000 FMFlg1=           0
         NFxFlg=           0 DoJE=T BraDBF=F KetDBF=T FulRan=T
         wScrn=  0.000000 ICntrl=       500 IOpCl=  0 I1Cent=   200000004 NGrid=           0
         NMat0=    1 NMatS0=      1 NMatT0=    0 NMatD0=    1 NMtDS0=    0 NMtDT0=    0
 Petite list used in FoFCou.
 Harris En= -283.250031742404    
 JPrj=0 DoOrth=F DoCkMO=F.
 Initial guess orbital symmetries:
       Occupied  (A') (A') (A') (A') (A') (A') (A') (A') (A') (A')
                 (A") (A') (A') (A') (A") (A') (A") (A") (A') (A')
       Virtual   (A") (A') (A') (A') (A") (A') (A') (A") (A') (A")
                 (A') (A') (A') (A") (A') (A') (A") (A') (A') (A")
                 (A") (A') (A") (A') (A') (A') (A") (A') (A') (A')
                 (A') (A") (A') (A") (A') (A") (A') (A') (A") (A')
                 (A') (A") (A') (A") (A') (A") (A') (A") (A') (A')
                 (A') (A') (A") (A') (A") (A") (A') (A') (A') (A")
                 (A') (A') (A') (A") (A') (A') (A") (A") (A') (A')
                 (A') (A") (A') (A") (A") (A') (A') (A') (A") (A')
                 (A") (A") (A') (A') (A") (A') (A') (A") (A') (A")
                 (A') (A') (A") (A') (A") (A') (A') (A") (A") (A')
                 (A') (A") (A') (A") (A') (A') (A") (A') (A") (A')
                 (A') (A") (A") (A') (A') (A") (A') (A") (A') (A')
                 (A") (A') (A') (A') (A") (A') (A") (A') (A") (A')
                 (A") (A') (A') (A") (A') (A") (A') (A') (A") (A')
                 (A") (A') (A") (A') (A") (A') (A') (A") (A') (A")
                 (A') (A") (A') (A') (A") (A") (A') (A") (A') (A')
                 (A") (A') (A') (A") (A") (A') (A') (A') (A") (A')
                 (A') (A") (A') (A') (A") (A') (A") (A') (A") (A')
                 (A') (A") (A') (A') (A") (A') (A") (A') (A") (A')
                 (A") (A') (A') (A") (A') (A") (A') (A") (A') (A")
                 (A') (A") (A') (A") (A') (A") (A') (A") (A') (A')
                 (A") (A") (A') (A") (A') (A') (A') (A") (A') (A")
                 (A') (A") (A') (A') (A") (A') (A") (A') (A') (A")
                 (A') (A') (A") (A') (A") (A") (A') (A") (A") (A')
                 (A") (A') (A") (A') (A') (A") (A") (A') (A') (A')
                 (A") (A') (A') (A") (A') (A") (A') (A") (A') (A")
                 (A') (A") (A') (A') (A") (A') (A") (A') (A") (A')
                 (A') (A') (A") (A") (A') (A') (A") (A') (A') (A')
                 (A") (A') (A") (A') (A") (A') (A") (A') (A") (A")
                 (A') (A') (A') (A") (A") (A') (A') (A") (A') (A")
                 (A') (A") (A') (A") (A') (A') (A') (A") (A') (A")
                 (A') (A') (A") (A') (A") (A') (A') (A') (A") (A")
                 (A') (A') (A") (A') (A") (A") (A') (A") (A') (A')
                 (A') (A") (A') (A") (A') (A") (A") (A') (A') (A")
                 (A') (A") (A') (A") (A') (A') (A") (A') (A") (A')
                 (A') (A') (A") (A') (A") (A') (A") (A') (A') (A')
                 (A") (A') (A") (A') (A") (A') (A") (A') (A") (A')
                 (A") (A') (A') (A") (A') (A") (A') (A') (A") (A')
                 (A') (A') (A") (A") (A') (A") (A') (A") (A") (A')
                 (A') (A') (A") (A") (A') (A') (A") (A') (A") (A')
                 (A') (A') (A") (A') (A") (A') (A') (A") (A') (A')
                 (A") (A") (A') (A") (A') (A') (A') (A") (A") (A")
                 (A') (A") (A') (A') (A") (A') (A") (A') (A") (A')
                 (A") (A') (A") (A') (A") (A') (A') (A") (A') (A")
                 (A") (A') (A') (A') (A") (A") (A') (A") (A") (A')
                 (A') (A') (A") (A") (A') (A") (A') (A") (A') (A")
                 (A') (A') (A") (A') (A") (A') (A') (A") (A') (A')
                 (A") (A') (A') (A') (A") (A') (A") (A') (A') (A")
                 (A') (A") (A') (A") (A') (A") (A') (A') (A") (A')
                 (A") (A') (A') (A") (A") (A") (A') (A') (A") (A')
                 (A") (A') (A') (A") (A') (A') (A") (A') (A') (A')
                 (A") (A') (A") (A') (A') (A") (A') (A") (A') (A")
                 (A") (A') (A') (A') (A") (A') (A") (A') (A") (A')
                 (A") (A') (A') (A") (A') (A') (A") (A') (A") (A")
                 (A") (A') (A") (A') (A") (A') (A") (A') (A') (A")
                 (A") (A") (A') (A') (A") (A') (A') (A") (A') (A')
                 (A") (A") (A') (A') (A') (A") (A') (A') (A") (A')
                 (A') (A') (A") (A') (A") (A') (A") (A') (A") (A")
                 (A') (A') (A") (A") (A") (A') (A') (A') (A") (A')
                 (A") (A") (A') (A') (A") (A') (A') (A") (A') (A')
                 (A') (A') (A") (A') (A') (A') (A') (A') (A') (A')
 The electronic state of the initial guess is 1-A'.
 Leave Link  401 at Sat Jan 16 12:01:38 2021, MaxMem= 13421772800 cpu:              42.3 elap:               1.6
 (Enter /data2/software/Gaussian/g16_from_xuruiqin/g16/l502.exe)
 Integral symmetry usage will be decided dynamically.
 Closed shell SCF:
 Using DIIS extrapolation, IDIIS=  1040.
 NGot= 13421772800 LenX= 13420462490 LenY= 13419821690
 Requested convergence on RMS density matrix=1.00D-08 within 128 cycles.
 Requested convergence on MAX density matrix=1.00D-06.
 Requested convergence on             energy=1.00D-06.
 No special actions if energy rises.
 Fock matrices will be formed incrementally for  20 cycles.

 Cycle   1  Pass 1  IDiag  1:
 FoFJK:  IHMeth= 1 ICntrl=       0 DoSepK=F KAlg= 0 I1Cent=           0 FoldK=F
 IRaf= 980000000 NMat=       1 IRICut=       1 DoRegI=T DoRafI=F ISym2E= 1 IDoP0=0 IntGTp=1.
 FoFCou: FMM=F IPFlag=           0 FMFlag=      100000 FMFlg1=           0
         NFxFlg=           0 DoJE=F BraDBF=F KetDBF=F FulRan=T
         wScrn=  0.000000 ICntrl=         0 IOpCl=  0 I1Cent=           0 NGrid=           0
         NMat0=    1 NMatS0=      1 NMatT0=    0 NMatD0=    1 NMtDS0=    0 NMtDT0=    0
 Petite list used in FoFCou.
 E= -282.724369273645    
 DIIS: error= 2.09D-02 at cycle   1 NSaved=   1.
 NSaved= 1 IEnMin= 1 EnMin= -282.724369273645     IErMin= 1 ErrMin= 2.09D-02
 ErrMax= 2.09D-02  0.00D+00 EMaxC= 1.00D-01 BMatC= 6.53D-01 BMatP= 6.53D-01
 IDIUse=3 WtCom= 7.91D-01 WtEn= 2.09D-01
 Coeff-Com:  0.100D+01
 Coeff-En:   0.100D+01
 Coeff:      0.100D+01
 Gap=     0.387 Goal=   None    Shift=    0.000
 GapD=    0.387 DampG=1.000 DampE=0.500 DampFc=0.5000 IDamp=-1.
 Damping current iteration by 5.00D-01
 RMSDP=8.78D-04 MaxDP=8.93D-02              OVMax= 1.23D-01

 Cycle   2  Pass 1  IDiag  1:
 RMSU=  4.30D-04    CP:  9.75D-01
 E= -282.851477743110     Delta-E=       -0.127108469465 Rises=F Damp=T
 DIIS: error= 9.74D-03 at cycle   2 NSaved=   2.
 NSaved= 2 IEnMin= 2 EnMin= -282.851477743110     IErMin= 2 ErrMin= 9.74D-03
 ErrMax= 9.74D-03  0.00D+00 EMaxC= 1.00D-01 BMatC= 1.35D-01 BMatP= 6.53D-01
 IDIUse=3 WtCom= 9.03D-01 WtEn= 9.74D-02
 Coeff-Com: -0.605D+00 0.161D+01
 Coeff-En:   0.000D+00 0.100D+01
 Coeff:     -0.546D+00 0.155D+01
 Gap=     0.447 Goal=   None    Shift=    0.000
 RMSDP=4.51D-04 MaxDP=5.36D-02 DE=-1.27D-01 OVMax= 5.15D-02

 Cycle   3  Pass 1  IDiag  1:
 RMSU=  2.90D-04    CP:  9.43D-01  1.76D+00
 E= -282.962879088618     Delta-E=       -0.111401345507 Rises=F Damp=F
 DIIS: error= 3.35D-03 at cycle   3 NSaved=   3.
 NSaved= 3 IEnMin= 3 EnMin= -282.962879088618     IErMin= 3 ErrMin= 3.35D-03
 ErrMax= 3.35D-03  0.00D+00 EMaxC= 1.00D-01 BMatC= 6.84D-03 BMatP= 1.35D-01
 IDIUse=3 WtCom= 9.67D-01 WtEn= 3.35D-02
 Coeff-Com: -0.206D+00 0.370D+00 0.836D+00
 Coeff-En:   0.000D+00 0.000D+00 0.100D+01
 Coeff:     -0.199D+00 0.358D+00 0.841D+00
 Gap=     0.431 Goal=   None    Shift=    0.000
 RMSDP=6.76D-05 MaxDP=6.26D-03 DE=-1.11D-01 OVMax= 2.28D-02

 Cycle   4  Pass 1  IDiag  1:
 RMSU=  4.55D-05    CP:  9.44D-01  1.86D+00  8.97D-01
 E= -282.967214731244     Delta-E=       -0.004335642626 Rises=F Damp=F
 DIIS: error= 1.04D-03 at cycle   4 NSaved=   4.
 NSaved= 4 IEnMin= 4 EnMin= -282.967214731244     IErMin= 4 ErrMin= 1.04D-03
 ErrMax= 1.04D-03  0.00D+00 EMaxC= 1.00D-01 BMatC= 3.70D-04 BMatP= 6.84D-03
 IDIUse=3 WtCom= 9.90D-01 WtEn= 1.04D-02
 Coeff-Com: -0.474D-01 0.751D-01 0.263D+00 0.709D+00
 Coeff-En:   0.000D+00 0.000D+00 0.000D+00 0.100D+01
 Coeff:     -0.469D-01 0.743D-01 0.260D+00 0.712D+00
 Gap=     0.426 Goal=   None    Shift=    0.000
 RMSDP=1.87D-05 MaxDP=1.65D-03 DE=-4.34D-03 OVMax= 4.36D-03

 Cycle   5  Pass 1  IDiag  1:
 RMSU=  1.76D-05    CP:  9.44D-01  1.86D+00  9.12D-01  8.94D-01
 E= -282.967532889897     Delta-E=       -0.000318158653 Rises=F Damp=F
 DIIS: error= 2.86D-04 at cycle   5 NSaved=   5.
 NSaved= 5 IEnMin= 5 EnMin= -282.967532889897     IErMin= 5 ErrMin= 2.86D-04
 ErrMax= 2.86D-04  0.00D+00 EMaxC= 1.00D-01 BMatC= 2.76D-05 BMatP= 3.70D-04
 IDIUse=3 WtCom= 9.97D-01 WtEn= 2.86D-03
 Coeff-Com:  0.194D-01-0.355D-01-0.808D-01 0.437D-01 0.105D+01
 Coeff-En:   0.000D+00 0.000D+00 0.000D+00 0.000D+00 0.100D+01
 Coeff:      0.193D-01-0.354D-01-0.805D-01 0.436D-01 0.105D+01
 Gap=     0.427 Goal=   None    Shift=    0.000
 RMSDP=9.29D-06 MaxDP=6.25D-04 DE=-3.18D-04 OVMax= 3.59D-03

 Cycle   6  Pass 1  IDiag  1:
 RMSU=  5.11D-06    CP:  9.44D-01  1.86D+00  9.17D-01  1.03D+00  1.25D+00
 E= -282.967583577869     Delta-E=       -0.000050687972 Rises=F Damp=F
 DIIS: error= 8.69D-05 at cycle   6 NSaved=   6.
 NSaved= 6 IEnMin= 6 EnMin= -282.967583577869     IErMin= 6 ErrMin= 8.69D-05
 ErrMax= 8.69D-05  0.00D+00 EMaxC= 1.00D-01 BMatC= 4.30D-06 BMatP= 2.76D-05
 IDIUse=1 WtCom= 1.00D+00 WtEn= 0.00D+00
 Coeff-Com:  0.949D-02-0.162D-01-0.465D-01-0.777D-01 0.222D+00 0.908D+00
 Coeff:      0.949D-02-0.162D-01-0.465D-01-0.777D-01 0.222D+00 0.908D+00
 Gap=     0.428 Goal=   None    Shift=    0.000
 RMSDP=4.01D-06 MaxDP=3.33D-04 DE=-5.07D-05 OVMax= 1.03D-03

 Cycle   7  Pass 1  IDiag  1:
 RMSU=  1.96D-06    CP:  9.45D-01  1.86D+00  9.18D-01  1.07D+00  1.41D+00
                    CP:  1.17D+00
 E= -282.967591158792     Delta-E=       -0.000007580923 Rises=F Damp=F
 DIIS: error= 4.04D-05 at cycle   7 NSaved=   7.
 NSaved= 7 IEnMin= 7 EnMin= -282.967591158792     IErMin= 7 ErrMin= 4.04D-05
 ErrMax= 4.04D-05  0.00D+00 EMaxC= 1.00D-01 BMatC= 4.67D-07 BMatP= 4.30D-06
 IDIUse=1 WtCom= 1.00D+00 WtEn= 0.00D+00
 Coeff-Com: -0.188D-02 0.350D-02 0.946D-02-0.138D-01-0.109D+00 0.192D-01
 Coeff-Com:  0.109D+01
 Coeff:     -0.188D-02 0.350D-02 0.946D-02-0.138D-01-0.109D+00 0.192D-01
 Coeff:      0.109D+01
 Gap=     0.428 Goal=   None    Shift=    0.000
 RMSDP=1.59D-06 MaxDP=1.14D-04 DE=-7.58D-06 OVMax= 6.75D-04

 Cycle   8  Pass 1  IDiag  1:
 RMSU=  6.31D-07    CP:  9.45D-01  1.86D+00  9.18D-01  1.07D+00  1.46D+00
                    CP:  1.35D+00  1.33D+00
 E= -282.967592445332     Delta-E=       -0.000001286540 Rises=F Damp=F
 DIIS: error= 1.50D-05 at cycle   8 NSaved=   8.
 NSaved= 8 IEnMin= 8 EnMin= -282.967592445332     IErMin= 8 ErrMin= 1.50D-05
 ErrMax= 1.50D-05  0.00D+00 EMaxC= 1.00D-01 BMatC= 7.69D-08 BMatP= 4.67D-07
 IDIUse=1 WtCom= 1.00D+00 WtEn= 0.00D+00
 Coeff-Com: -0.120D-02 0.202D-02 0.652D-02 0.775D-02-0.189D-01-0.124D+00
 Coeff-Com: -0.110D+00 0.124D+01
 Coeff:     -0.120D-02 0.202D-02 0.652D-02 0.775D-02-0.189D-01-0.124D+00
 Coeff:     -0.110D+00 0.124D+01
 Gap=     0.428 Goal=   None    Shift=    0.000
 RMSDP=7.07D-07 MaxDP=5.59D-05 DE=-1.29D-06 OVMax= 3.11D-04

 Cycle   9  Pass 1  IDiag  1:
 RMSU=  2.57D-07    CP:  9.45D-01  1.86D+00  9.19D-01  1.07D+00  1.47D+00
                    CP:  1.40D+00  1.54D+00  1.49D+00
 E= -282.967592672291     Delta-E=       -0.000000226960 Rises=F Damp=F
 DIIS: error= 4.55D-06 at cycle   9 NSaved=   9.
 NSaved= 9 IEnMin= 9 EnMin= -282.967592672291     IErMin= 9 ErrMin= 4.55D-06
 ErrMax= 4.55D-06  0.00D+00 EMaxC= 1.00D-01 BMatC= 9.29D-09 BMatP= 7.69D-08
 IDIUse=1 WtCom= 1.00D+00 WtEn= 0.00D+00
 Coeff-Com:  0.676D-04-0.162D-03-0.141D-03 0.173D-02 0.125D-01-0.190D-01
 Coeff-Com: -0.143D+00 0.139D+00 0.101D+01
 Coeff:      0.676D-04-0.162D-03-0.141D-03 0.173D-02 0.125D-01-0.190D-01
 Coeff:     -0.143D+00 0.139D+00 0.101D+01
 Gap=     0.428 Goal=   None    Shift=    0.000
 RMSDP=1.91D-07 MaxDP=1.71D-05 DE=-2.27D-07 OVMax= 8.95D-05

 Cycle  10  Pass 1  IDiag  1:
 RMSU=  9.39D-08    CP:  9.45D-01  1.86D+00  9.19D-01  1.07D+00  1.47D+00
                    CP:  1.41D+00  1.58D+00  1.68D+00  1.24D+00
 E= -282.967592693980     Delta-E=       -0.000000021688 Rises=F Damp=F
 DIIS: error= 1.58D-06 at cycle  10 NSaved=  10.
 NSaved=10 IEnMin=10 EnMin= -282.967592693980     IErMin=10 ErrMin= 1.58D-06
 ErrMax= 1.58D-06  0.00D+00 EMaxC= 1.00D-01 BMatC= 1.08D-09 BMatP= 9.29D-09
 IDIUse=1 WtCom= 1.00D+00 WtEn= 0.00D+00
 Coeff-Com:  0.186D-03-0.321D-03-0.942D-03-0.137D-02 0.449D-02 0.157D-01
 Coeff-Com:  0.753D-02-0.172D+00 0.792D-01 0.107D+01
 Coeff:      0.186D-03-0.321D-03-0.942D-03-0.137D-02 0.449D-02 0.157D-01
 Coeff:      0.753D-02-0.172D+00 0.792D-01 0.107D+01
 Gap=     0.428 Goal=   None    Shift=    0.000
 RMSDP=7.26D-08 MaxDP=6.69D-06 DE=-2.17D-08 OVMax= 2.67D-05

 Cycle  11  Pass 1  IDiag  1:
 RMSU=  3.05D-08    CP:  9.45D-01  1.86D+00  9.19D-01  1.07D+00  1.47D+00
                    CP:  1.40D+00  1.58D+00  1.72D+00  1.44D+00  1.25D+00
 E= -282.967592696382     Delta-E=       -0.000000002403 Rises=F Damp=F
 DIIS: error= 3.33D-07 at cycle  11 NSaved=  11.
 NSaved=11 IEnMin=11 EnMin= -282.967592696382     IErMin=11 ErrMin= 3.33D-07
 ErrMax= 3.33D-07  0.00D+00 EMaxC= 1.00D-01 BMatC= 6.53D-11 BMatP= 1.08D-09
 IDIUse=1 WtCom= 1.00D+00 WtEn= 0.00D+00
 Coeff-Com: -0.997D-05 0.200D-04 0.654D-04-0.751D-04-0.908D-03 0.518D-04
 Coeff-Com:  0.945D-02 0.530D-02-0.934D-01-0.857D-01 0.117D+01
 Coeff:     -0.997D-05 0.200D-04 0.654D-04-0.751D-04-0.908D-03 0.518D-04
 Coeff:      0.945D-02 0.530D-02-0.934D-01-0.857D-01 0.117D+01
 Gap=     0.428 Goal=   None    Shift=    0.000
 RMSDP=2.04D-08 MaxDP=1.47D-06 DE=-2.40D-09 OVMax= 5.72D-06

 Cycle  12  Pass 1  IDiag  1:
 RMSU=  8.04D-09    CP:  9.45D-01  1.86D+00  9.19D-01  1.07D+00  1.47D+00
                    CP:  1.40D+00  1.58D+00  1.72D+00  1.47D+00  1.39D+00
                    CP:  1.34D+00
 E= -282.967592696542     Delta-E=       -0.000000000160 Rises=F Damp=F
 DIIS: error= 1.09D-07 at cycle  12 NSaved=  12.
 NSaved=12 IEnMin=12 EnMin= -282.967592696542     IErMin=12 ErrMin= 1.09D-07
 ErrMax= 1.09D-07  0.00D+00 EMaxC= 1.00D-01 BMatC= 4.15D-12 BMatP= 6.53D-11
 IDIUse=1 WtCom= 1.00D+00 WtEn= 0.00D+00
 Coeff-Com: -0.106D-04 0.179D-04 0.604D-04 0.781D-04-0.210D-03-0.110D-02
 Coeff-Com: -0.163D-02 0.136D-01-0.126D-02-0.721D-01-0.557D-01 0.112D+01
 Coeff:     -0.106D-04 0.179D-04 0.604D-04 0.781D-04-0.210D-03-0.110D-02
 Coeff:     -0.163D-02 0.136D-01-0.126D-02-0.721D-01-0.557D-01 0.112D+01
 Gap=     0.428 Goal=   None    Shift=    0.000
 RMSDP=5.47D-09 MaxDP=4.45D-07 DE=-1.60D-10 OVMax= 1.19D-06

 SCF Done:  E(RHF) =  -282.967592697     A.U. after   12 cycles
            NFock= 12  Conv=0.55D-08     -V/T= 2.0011
 KE= 2.826635291756D+02 PE=-1.026428879213D+03 EE= 2.807905014104D+02
 Leave Link  502 at Sat Jan 16 12:05:15 2021, MaxMem= 13421772800 cpu:            6055.9 elap:             216.7
 (Enter /data2/software/Gaussian/g16_from_xuruiqin/g16/l801.exe)
 ExpMin= 2.36D-02 ExpMax= 6.14D+04 ExpMxC= 5.91D+02 IAcc=3 IRadAn=         5 AccDes= 0.00D+00
 HarFok:  IExCor=  205 AccDes= 0.00D+00 IRadAn=         5 IDoV=-2 UseB2=F ITyADJ=14
 ICtDFT= 12500011 ScaDFX=  1.000000  1.000000  1.000000  1.000000
 DSYEVD-2 returned Info=        3401 IAlg= 4 N=    80 NDim=    80 NE2=   167756265 trying  DSYEV.
 Largest valence mixing into a core orbital is  1.88D-04
 Largest core mixing into a valence orbital is  2.99D-05
 Range of M.O.s used for correlation:     6   630
 NBasis=   630 NAE=    20 NBE=    20 NFC=     5 NFV=     0
 NROrb=    625 NOA=    15 NOB=    15 NVA=   610 NVB=   610

 **** Warning!!: The largest alpha MO coefficient is  0.11148239D+03

 Leave Link  801 at Sat Jan 16 12:05:16 2021, MaxMem= 13421772800 cpu:              10.4 elap:               0.4
 (Enter /data2/software/Gaussian/g16_from_xuruiqin/g16/l906.exe)
 FulOut=F Deriv=F AODrv=F NAtomX=    10
   MMem=          62  MDisk=          15 MDiskD=          15
  W3Min=     7320000 MinDsk=    11071900 NBas6D=         800
 NBas2D=      323235    NTT=      320400    LW2=     4508827
    MDV= 13419535270 MDiskM=       37270 NBas2p=      242770
 Fully direct method using O(OVN) memory.
 IMap=   1   2   3   4   5   6   7   8   9  10  11  12  13  14  15
 JobTyp=1 Pass  1:  I=   1 to  15 NPSUse= 28 ParTrn=T ParDer=T DoDerP=F.
 Spin components of T(2) and E(2):
     alpha-alpha T2 =       0.3653628744D-01 E2=     -0.1327908212D+00
     alpha-beta  T2 =       0.2055181347D+00 E2=     -0.8264575875D+00
     beta-beta   T2 =       0.3653628744D-01 E2=     -0.1327908212D+00
 The integrals were generated   1 times.
 ANorm=    0.1130747854D+01
 E2 =    -0.1092039230D+01 EUMP2 =    -0.28405963192649D+03
 Leave Link  906 at Sat Jan 16 12:10:53 2021, MaxMem= 13421772800 cpu:            9439.4 elap:             337.0
 (Enter /data2/software/Gaussian/g16_from_xuruiqin/g16/l601.exe)
 Copying SCF densities to generalized density rwf, IOpCl= 0 IROHF=0.

 **********************************************************************

            Population analysis using the SCF Density.

 **********************************************************************

 Orbital symmetries:
       Occupied  (A') (A') (A') (A') (A') (A') (A') (A') (A') (A')
                 (A') (A") (A') (A") (A') (A') (A") (A') (A") (A')
       Virtual   (A') (A') (A") (A') (A") (A') (A") (A') (A') (A')
                 (A') (A") (A') (A') (A') (A") (A') (A") (A") (A')
                 (A') (A") (A') (A') (A") (A') (A") (A') (A') (A')
                 (A") (A") (A') (A") (A") (A') (A') (A') (A') (A")
                 (A') (A') (A") (A') (A') (A") (A') (A") (A') (A")
                 (A') (A") (A') (A") (A') (A') (A") (A') (A') (A')
                 (A') (A") (A') (A') (A') (A") (A') (A') (A") (A")
                 (A") (A') (A') (A') (A") (A") (A') (A') (A') (A")
                 (A') (A") (A') (A") (A') (A") (A') (A') (A") (A')
                 (A') (A") (A') (A") (A') (A') (A") (A") (A') (A')
                 (A") (A') (A') (A") (A') (A") (A') (A") (A") (A')
                 (A') (A') (A') (A') (A") (A") (A') (A") (A') (A')
                 (A') (A") (A") (A') (A') (A") (A') (A") (A') (A')
                 (A') (A") (A') (A') (A") (A') (A") (A") (A") (A')
                 (A') (A') (A") (A') (A") (A') (A") (A") (A') (A')
                 (A') (A") (A') (A') (A") (A") (A') (A") (A') (A')
                 (A") (A') (A") (A") (A') (A') (A') (A") (A') (A')
                 (A') (A") (A') (A') (A") (A') (A") (A") (A') (A')
                 (A') (A") (A') (A") (A") (A') (A") (A') (A') (A")
                 (A') (A") (A') (A') (A") (A') (A") (A') (A") (A')
                 (A') (A") (A") (A') (A") (A') (A") (A") (A') (A')
                 (A") (A') (A') (A') (A') (A") (A") (A') (A") (A')
                 (A') (A') (A") (A") (A") (A') (A") (A') (A') (A')
                 (A') (A') (A") (A") (A") (A') (A') (A") (A") (A')
                 (A") (A') (A') (A") (A') (A") (A') (A") (A') (A')
                 (A') (A") (A') (A") (A') (A") (A') (A") (A") (A')
                 (A') (A") (A') (A") (A') (A') (A") (A") (A') (A')
                 (A") (A') (A') (A") (A") (A') (A') (A') (A") (A')
                 (A') (A") (A') (A") (A') (A') (A") (A') (A") (A")
                 (A') (A') (A") (A') (A") (A') (A') (A") (A") (A')
                 (A") (A') (A') (A') (A") (A') (A") (A") (A') (A')
                 (A") (A') (A') (A') (A") (A') (A') (A') (A") (A")
                 (A') (A') (A") (A') (A") (A") (A") (A') (A') (A')
                 (A') (A") (A") (A') (A") (A') (A") (A') (A') (A")
                 (A") (A') (A') (A") (A') (A') (A") (A') (A") (A')
                 (A') (A") (A') (A") (A') (A') (A') (A') (A") (A')
                 (A") (A') (A") (A') (A') (A") (A") (A') (A") (A")
                 (A') (A') (A') (A") (A') (A") (A') (A') (A') (A")
                 (A') (A') (A") (A") (A") (A') (A") (A') (A") (A')
                 (A') (A") (A') (A") (A') (A") (A') (A") (A') (A')
                 (A') (A") (A') (A') (A") (A') (A") (A') (A') (A')
                 (A") (A") (A') (A") (A') (A') (A") (A") (A') (A")
                 (A') (A") (A") (A') (A') (A") (A') (A") (A') (A')
                 (A") (A') (A') (A") (A') (A") (A") (A') (A') (A")
                 (A') (A") (A') (A") (A') (A") (A") (A') (A") (A')
                 (A') (A") (A') (A") (A") (A') (A') (A") (A") (A')
                 (A') (A') (A") (A') (A") (A') (A") (A') (A') (A')
                 (A') (A") (A') (A") (A') (A') (A") (A') (A') (A")
                 (A") (A') (A") (A') (A') (A") (A') (A') (A") (A")
                 (A') (A') (A") (A") (A") (A') (A') (A") (A') (A")
                 (A') (A") (A') (A') (A') (A') (A") (A') (A") (A')
                 (A") (A') (A') (A') (A') (A") (A") (A') (A') (A")
                 (A') (A") (A") (A') (A') (A") (A') (A") (A') (A')
                 (A') (A') (A") (A') (A") (A') (A") (A') (A") (A")
                 (A") (A') (A") (A') (A") (A') (A") (A') (A") (A')
                 (A') (A") (A') (A') (A") (A') (A") (A") (A') (A")
                 (A") (A') (A') (A') (A") (A') (A') (A') (A') (A")
                 (A') (A') (A") (A') (A") (A') (A") (A') (A") (A')
                 (A') (A") (A") (A") (A') (A") (A') (A") (A') (A")
                 (A') (A") (A') (A') (A") (A') (A') (A") (A') (A')
                 (A') (A') (A") (A') (A') (A') (A') (A') (A') (A')
 The electronic state is 1-A'.
 Alpha  occ. eigenvalues --  -20.61965 -20.54947 -15.55513 -11.38689 -11.27788
 Alpha  occ. eigenvalues --   -1.47433  -1.36803  -1.20198  -0.97572  -0.83405
 Alpha  occ. eigenvalues --   -0.71150  -0.70146  -0.69552  -0.63263  -0.59938
 Alpha  occ. eigenvalues --   -0.58370  -0.54832  -0.48741  -0.48398  -0.40516
 Alpha virt. eigenvalues --    0.02262   0.03551   0.03672   0.03942   0.06014
 Alpha virt. eigenvalues --    0.07199   0.08134   0.08592   0.08989   0.10629
 Alpha virt. eigenvalues --    0.11816   0.12300   0.12901   0.13726   0.14242
 Alpha virt. eigenvalues --    0.14795   0.15113   0.15739   0.16276   0.18562
 Alpha virt. eigenvalues --    0.19066   0.19185   0.21246   0.21759   0.21827
 Alpha virt. eigenvalues --    0.23440   0.23679   0.24705   0.25755   0.26940
 Alpha virt. eigenvalues --    0.27202   0.28796   0.29005   0.29933   0.30246
 Alpha virt. eigenvalues --    0.30738   0.31033   0.31897   0.32575   0.32924
 Alpha virt. eigenvalues --    0.34439   0.35130   0.35248   0.36499   0.37431
 Alpha virt. eigenvalues --    0.38368   0.39331   0.39604   0.40533   0.41145
 Alpha virt. eigenvalues --    0.41997   0.42365   0.43490   0.44307   0.44552
 Alpha virt. eigenvalues --    0.46294   0.47305   0.47486   0.48283   0.48861
 Alpha virt. eigenvalues --    0.52202   0.52874   0.52949   0.54931   0.56101
 Alpha virt. eigenvalues --    0.56867   0.57648   0.59366   0.59659   0.60815
 Alpha virt. eigenvalues --    0.62699   0.63027   0.63089   0.64783   0.64931
 Alpha virt. eigenvalues --    0.65869   0.66023   0.67807   0.68250   0.70273
 Alpha virt. eigenvalues --    0.70486   0.70732   0.72744   0.73528   0.73931
 Alpha virt. eigenvalues --    0.74262   0.74852   0.75691   0.76053   0.76149
 Alpha virt. eigenvalues --    0.77448   0.78070   0.79285   0.80592   0.81115
 Alpha virt. eigenvalues --    0.83284   0.83814   0.84409   0.86523   0.87660
 Alpha virt. eigenvalues --    0.88466   0.88550   0.89635   0.90049   0.90959
 Alpha virt. eigenvalues --    0.92169   0.92512   0.94335   0.95864   0.96240
 Alpha virt. eigenvalues --    0.97379   0.98355   0.99576   1.01861   1.01975
 Alpha virt. eigenvalues --    1.03037   1.03396   1.03818   1.05175   1.06011
 Alpha virt. eigenvalues --    1.08742   1.09362   1.09857   1.10715   1.11970
 Alpha virt. eigenvalues --    1.13190   1.15310   1.16754   1.16850   1.17883
 Alpha virt. eigenvalues --    1.20220   1.21456   1.21946   1.23291   1.24843
 Alpha virt. eigenvalues --    1.27126   1.28293   1.29344   1.30650   1.30743
 Alpha virt. eigenvalues --    1.31432   1.33137   1.36930   1.38293   1.41598
 Alpha virt. eigenvalues --    1.42311   1.44156   1.45082   1.45203   1.45715
 Alpha virt. eigenvalues --    1.49636   1.50846   1.50988   1.51526   1.54236
 Alpha virt. eigenvalues --    1.55114   1.55829   1.56907   1.57644   1.59382
 Alpha virt. eigenvalues --    1.60240   1.61057   1.61830   1.64866   1.64966
 Alpha virt. eigenvalues --    1.66400   1.67136   1.67486   1.68614   1.72389
 Alpha virt. eigenvalues --    1.72706   1.73684   1.74340   1.76765   1.77010
 Alpha virt. eigenvalues --    1.77482   1.78490   1.78724   1.79655   1.82190
 Alpha virt. eigenvalues --    1.83364   1.84965   1.86525   1.87136   1.88894
 Alpha virt. eigenvalues --    1.89589   1.90018   1.90416   1.92551   1.93103
 Alpha virt. eigenvalues --    1.93356   1.95282   1.97430   1.97700   1.99391
 Alpha virt. eigenvalues --    2.00274   2.01428   2.03640   2.04693   2.06100
 Alpha virt. eigenvalues --    2.06360   2.06958   2.07855   2.08222   2.10283
 Alpha virt. eigenvalues --    2.11663   2.12333   2.12588   2.14998   2.15936
 Alpha virt. eigenvalues --    2.17837   2.17987   2.18683   2.20344   2.22295
 Alpha virt. eigenvalues --    2.22623   2.24024   2.25052   2.25948   2.27063
 Alpha virt. eigenvalues --    2.28131   2.29324   2.29904   2.33690   2.34470
 Alpha virt. eigenvalues --    2.35848   2.35988   2.36195   2.39110   2.40106
 Alpha virt. eigenvalues --    2.41464   2.42264   2.43172   2.44782   2.46924
 Alpha virt. eigenvalues --    2.47640   2.48761   2.51251   2.54774   2.55528
 Alpha virt. eigenvalues --    2.56071   2.61306   2.62138   2.63412   2.65288
 Alpha virt. eigenvalues --    2.66197   2.69863   2.70759   2.71646   2.72996
 Alpha virt. eigenvalues --    2.78885   2.78975   2.80115   2.81697   2.83967
 Alpha virt. eigenvalues --    2.86949   2.87975   2.88604   2.91728   2.92325
 Alpha virt. eigenvalues --    2.93250   2.94987   2.96866   2.99574   3.00158
 Alpha virt. eigenvalues --    3.01340   3.03431   3.05269   3.05568   3.07833
 Alpha virt. eigenvalues --    3.10709   3.11582   3.12453   3.12560   3.16272
 Alpha virt. eigenvalues --    3.16582   3.20140   3.23737   3.26566   3.27076
 Alpha virt. eigenvalues --    3.27527   3.31029   3.32115   3.32266   3.33423
 Alpha virt. eigenvalues --    3.35857   3.36820   3.39749   3.40455   3.41817
 Alpha virt. eigenvalues --    3.44514   3.50814   3.51443   3.51928   3.53271
 Alpha virt. eigenvalues --    3.55429   3.58048   3.59558   3.63389   3.63966
 Alpha virt. eigenvalues --    3.67282   3.67800   3.71995   3.75061   3.76571
 Alpha virt. eigenvalues --    3.80162   3.81462   3.85615   3.87249   3.88135
 Alpha virt. eigenvalues --    3.90650   3.92759   3.93267   3.96157   3.98464
 Alpha virt. eigenvalues --    4.01206   4.03436   4.05233   4.05336   4.07799
 Alpha virt. eigenvalues --    4.08696   4.10389   4.12761   4.16228   4.16976
 Alpha virt. eigenvalues --    4.19090   4.20235   4.22243   4.22274   4.25601
 Alpha virt. eigenvalues --    4.27379   4.28531   4.30264   4.31352   4.31778
 Alpha virt. eigenvalues --    4.32234   4.32752   4.38573   4.42256   4.42533
 Alpha virt. eigenvalues --    4.45018   4.45937   4.47912   4.49860   4.51872
 Alpha virt. eigenvalues --    4.53299   4.55975   4.56435   4.57718   4.61958
 Alpha virt. eigenvalues --    4.63045   4.63232   4.65417   4.66540   4.68050
 Alpha virt. eigenvalues --    4.69614   4.72615   4.74567   4.75076   4.78001
 Alpha virt. eigenvalues --    4.78423   4.80966   4.83889   4.84377   4.86145
 Alpha virt. eigenvalues --    4.87119   4.90320   4.93592   4.95807   4.99441
 Alpha virt. eigenvalues --    5.00899   5.03900   5.06134   5.11173   5.14093
 Alpha virt. eigenvalues --    5.17698   5.20129   5.23594   5.27906   5.28959
 Alpha virt. eigenvalues --    5.33031   5.33623   5.34846   5.42578   5.46865
 Alpha virt. eigenvalues --    5.47881   5.52397   5.55843   5.59089   5.62765
 Alpha virt. eigenvalues --    5.67687   5.68104   5.72604   5.79111   5.80974
 Alpha virt. eigenvalues --    5.87164   5.87719   5.91541   5.96260   5.98117
 Alpha virt. eigenvalues --    6.12131   6.18318   6.19484   6.29523   6.33238
 Alpha virt. eigenvalues --    6.36002   6.38928   6.40037   6.52203   6.52615
 Alpha virt. eigenvalues --    6.55618   6.59639   6.63722   6.65447   6.69720
 Alpha virt. eigenvalues --    6.73916   6.80645   6.82709   6.86567   6.90087
 Alpha virt. eigenvalues --    6.95615   6.97335   7.01786   7.03757   7.06665
 Alpha virt. eigenvalues --    7.07839   7.09233   7.09464   7.14155   7.15649
 Alpha virt. eigenvalues --    7.16066   7.23912   7.24986   7.26010   7.27578
 Alpha virt. eigenvalues --    7.28302   7.31852   7.34215   7.44670   7.47296
 Alpha virt. eigenvalues --    7.49993   7.51487   7.56818   7.58900   7.61154
 Alpha virt. eigenvalues --    7.66599   7.69944   7.71169   7.75093   7.77794
 Alpha virt. eigenvalues --    7.80742   7.82955   7.83475   7.85143   7.95303
 Alpha virt. eigenvalues --    7.95429   8.00523   8.01369   8.03849   8.06600
 Alpha virt. eigenvalues --    8.09467   8.13782   8.13934   8.15687   8.18779
 Alpha virt. eigenvalues --    8.21013   8.22722   8.28240   8.30665   8.32832
 Alpha virt. eigenvalues --    8.46169   8.48859   8.50087   8.53169   8.53946
 Alpha virt. eigenvalues --    8.56284   8.56856   8.66440   8.69112   8.70570
 Alpha virt. eigenvalues --    8.73018   8.75457   8.76969   8.77559   8.81600
 Alpha virt. eigenvalues --    8.85323   8.90417   8.96751   8.96983   9.03103
 Alpha virt. eigenvalues --    9.04670   9.09869   9.11480   9.15068   9.17097
 Alpha virt. eigenvalues --    9.17880   9.25940   9.26390   9.29299   9.29686
 Alpha virt. eigenvalues --    9.30221   9.33590   9.34685   9.41093   9.48051
 Alpha virt. eigenvalues --    9.51981   9.53698   9.56742   9.65874   9.66238
 Alpha virt. eigenvalues --    9.71637   9.72037   9.74087   9.78435   9.84918
 Alpha virt. eigenvalues --    9.86917   9.88260   9.93931   9.97442  10.05942
 Alpha virt. eigenvalues --   10.08263  10.10721  10.13632  10.16985  10.19333
 Alpha virt. eigenvalues --   10.26341  10.27288  10.32077  10.36321  10.47287
 Alpha virt. eigenvalues --   10.55328  10.56005  10.60177  10.65038  10.67736
 Alpha virt. eigenvalues --   10.75170  10.84513  10.84999  10.89520  10.96498
 Alpha virt. eigenvalues --   11.00918  11.00959  11.09143  11.09492  11.14493
 Alpha virt. eigenvalues --   11.18044  11.22839  11.24648  11.30530  11.30540
 Alpha virt. eigenvalues --   11.34870  11.35234  11.39780  11.44374  11.45669
 Alpha virt. eigenvalues --   11.46516  11.48893  11.56550  11.63311  11.63572
 Alpha virt. eigenvalues --   11.64783  11.78108  11.82692  11.88458  11.89777
 Alpha virt. eigenvalues --   11.96994  12.13171  12.15860  12.23188  12.23738
 Alpha virt. eigenvalues --   12.31280  12.38235  12.40337  12.44702  12.48667
 Alpha virt. eigenvalues --   12.50634  12.66234  12.76623  12.79880  12.80571
 Alpha virt. eigenvalues --   12.89289  12.90654  12.94781  13.04653  13.22707
 Alpha virt. eigenvalues --   13.26398  13.27825  13.32165  13.38237  13.39687
 Alpha virt. eigenvalues --   13.40912  13.56268  13.57314  13.87743  14.16019
 Alpha virt. eigenvalues --   14.18055  14.33428  14.59247  14.75181  14.91758
 Alpha virt. eigenvalues --   15.05757  15.13505  15.24997  15.26638  17.39499
 Alpha virt. eigenvalues --   26.59628  28.58988  36.60641  44.16084  45.77036
          Condensed to atoms (all electrons):
               1          2          3          4          5          6
     1  C    4.684356   0.118007   0.194429  -0.013472   0.154390   0.028059
     2  O    0.118007   8.396397  -0.023364   0.194292  -0.011138  -0.021454
     3  O    0.194429  -0.023364   8.587262  -0.050903   0.051433  -0.003315
     4  H   -0.013472   0.194292  -0.050903   0.556420   0.000140   0.003870
     5  C    0.154390  -0.011138   0.051433   0.000140   5.140333   0.111308
     6  N    0.028059  -0.021454  -0.003315   0.003870   0.111308   7.226660
     7  H   -0.063196   0.003058  -0.005009   0.002681   0.437884  -0.069832
     8  H   -0.063196   0.003058  -0.005009   0.002681   0.437884  -0.069832
     9  H   -0.004024   0.005188   0.000301  -0.000952   0.021751   0.222644
    10  H   -0.004024   0.005188   0.000301  -0.000952   0.021751   0.222644
               7          8          9         10
     1  C   -0.063196  -0.063196  -0.004024  -0.004024
     2  O    0.003058   0.003058   0.005188   0.005188
     3  O   -0.005009  -0.005009   0.000301   0.000301
     4  H    0.002681   0.002681  -0.000952  -0.000952
     5  C    0.437884   0.437884   0.021751   0.021751
     6  N   -0.069832  -0.069832   0.222644   0.222644
     7  H    0.352059   0.019344   0.005520  -0.001950
     8  H    0.019344   0.352059  -0.001950   0.005520
     9  H    0.005520  -0.001950   0.466369   0.026103
    10  H   -0.001950   0.005520   0.026103   0.466369
 Mulliken charges:
               1
     1  C    0.968671
     2  O   -0.669232
     3  O   -0.746125
     4  H    0.306195
     5  C   -0.365737
     6  N   -0.650752
     7  H    0.319441
     8  H    0.319441
     9  H    0.259049
    10  H    0.259049
 Sum of Mulliken charges =  -0.00000
 Mulliken charges with hydrogens summed into heavy atoms:
               1
     1  C    0.968671
     2  O   -0.363037
     3  O   -0.746125
     5  C    0.273145
     6  N   -0.132654
 Electronic spatial extent (au):  <R**2>=            415.6065
 Charge=             -0.0000 electrons
 Dipole moment (field-independent basis, Debye):
    X=             -1.7885    Y=             -1.0089    Z=             -0.0000  Tot=              2.0534
 Quadrupole moment (field-independent basis, Debye-Ang):
   XX=            -27.8402   YY=            -37.2450   ZZ=            -27.2247
   XY=             -2.1799   XZ=             -0.0000   YZ=             -0.0000
 Traceless Quadrupole moment (field-independent basis, Debye-Ang):
   XX=              2.9298   YY=             -6.4751   ZZ=              3.5453
   XY=             -2.1799   XZ=             -0.0000   YZ=             -0.0000
 Octapole moment (field-independent basis, Debye-Ang**2):
  XXX=             -8.6726  YYY=              4.9294  ZZZ=             -0.0000  XYY=            -19.5296
  XXY=              6.8468  XXZ=             -0.0000  XZZ=             -0.8837  YZZ=             -2.2166
  YYZ=              0.0000  XYZ=              0.0000
 Hexadecapole moment (field-independent basis, Debye-Ang**3):
 XXXX=           -131.4183 YYYY=           -377.7450 ZZZZ=            -34.4168 XXXY=             -0.5412
 XXXZ=             -0.0000 YYYX=             24.1597 YYYZ=             -0.0000 ZZZX=             -0.0000
 ZZZY=             -0.0000 XXYY=            -72.2919 XXZZ=            -28.5612 YYZZ=            -53.7090
 XXYZ=              0.0000 YYXZ=             -0.0000 ZZXY=              5.8277
 N-N= 1.800072559301D+02 E-N=-1.026428881918D+03  KE= 2.826635291756D+02
 Symmetry A'   KE= 2.698293834573D+02
 Symmetry A"   KE= 1.283414571844D+01
 Leave Link  601 at Sat Jan 16 12:10:53 2021, MaxMem= 13421772800 cpu:               7.2 elap:               0.4
 (Enter /data2/software/Gaussian/g16_from_xuruiqin/g16/l9999.exe)
 Unable to Open any file for archive entry.
 1\1\GINC-CPU01\SP\RMP2-FC\Aug-CC-pVQZ\C2H5N1O2\SHUCHONG\16-Jan-2021\0\
 \#p MP2 aug-cc-pvqz\\start best geom PCCP paper\\0,1\C\O,1,1.34824\O,1
 ,1.20339,2,122.72896\H,2,0.965621,1,106.37597,3,0.,0\C,1,1.51736,3,123
 .80161,2,180.,0\N,5,1.44458,1,118.62999,3,180.,0\H,5,1.0899,1,105.9562
 1,3,56.19793,0\H,5,1.0899,1,105.95621,3,-56.19793,0\H,6,1.00975,5,111.
 34671,1,59.71795,0\H,6,1.00975,5,111.34671,1,-59.71795,0\\Version=ES64
 L-G16RevC.01\State=1-A'\HF=-282.9675927\MP2=-284.0596319\RMSD=5.466e-0
 9\PG=CS [SG(C2H1N1O2),X(H4)]\\@
 The archive entry for this job was punched.


 THEREFORE SHALL EVIL COME UPON THEE...
 THOU SHALT NOT KNOW FROM WHENCE IT RISETH...
 AND MISCHIEF SHALL FALL UPON THEE...
 THOU SHALT NOT BE ABLE TO PUT IT OFF...
 AND DESOLATION SHALL COME UPON THEE SUDDENLY...
 WHICH THOU SHALT NOT KNOW...

                                         ISAIAH 47.11
 Job cpu time:       0 days  4 hours 20 minutes  8.5 seconds.
 Elapsed time:       0 days  0 hours  9 minutes 18.2 seconds.
 File lengths (MBytes):  RWF=    215 Int=      0 D2E=      0 Chk=     27 Scr=      1
 Normal termination of Gaussian 16 at Sat Jan 16 12:10:54 2021.
