 Entering Gaussian System, Link 0=g16
 Input=VIII_gtc_Best_geom_HF_aug-cc-pV5Z.gjf
 Output=VIII_gtc_Best_geom_HF_aug-cc-pV5Z.log
 Initial command:
 /data2/software/Gaussian/g16_c01-gpu/g16/l1.exe "/home/shuchong/scratch/Gau-31675.inp" -scrdir="/home/shuchong/scratch/"
 Entering Link 1 = /data2/software/Gaussian/g16_c01-gpu/g16/l1.exe PID=     31676.
  
 Copyright (c) 1988-2019, Gaussian, Inc.  All Rights Reserved.
  
 This is part of the Gaussian(R) 16 program.  It is based on
 the Gaussian(R) 09 system (copyright 2009, Gaussian, Inc.),
 the Gaussian(R) 03 system (copyright 2003, Gaussian, Inc.),
 the Gaussian(R) 98 system (copyright 1998, Gaussian, Inc.),
 the Gaussian(R) 94 system (copyright 1995, Gaussian, Inc.),
 the Gaussian 92(TM) system (copyright 1992, Gaussian, Inc.),
 the Gaussian 90(TM) system (copyright 1990, Gaussian, Inc.),
 the Gaussian 88(TM) system (copyright 1988, Gaussian, Inc.),
 the Gaussian 86(TM) system (copyright 1986, Carnegie Mellon
 University), and the Gaussian 82(TM) system (copyright 1983,
 Carnegie Mellon University). Gaussian is a federally registered
 trademark of Gaussian, Inc.
  
 This software contains proprietary and confidential information,
 including trade secrets, belonging to Gaussian, Inc.
  
 This software is provided under written license and may be
 used, copied, transmitted, or stored only in accord with that
 written license.
  
 The following legend is applicable only to US Government
 contracts under FAR:
  
                    RESTRICTED RIGHTS LEGEND
  
 Use, reproduction and disclosure by the US Government is
 subject to restrictions as set forth in subparagraphs (a)
 and (c) of the Commercial Computer Software - Restricted
 Rights clause in FAR 52.227-19.
  
 Gaussian, Inc.
 340 Quinnipiac St., Bldg. 40, Wallingford CT 06492
  
  
 ---------------------------------------------------------------
 Warning -- This program may not be used in any manner that
 competes with the business of Gaussian, Inc. or will provide
 assistance to any competitor of Gaussian, Inc.  The licensee
 of this program is prohibited from giving any competitor of
 Gaussian, Inc. access to this program.  By using this program,
 the user acknowledges that Gaussian, Inc. is engaged in the
 business of creating and licensing software in the field of
 computational chemistry and represents and warrants to the
 licensee that it is not a competitor of Gaussian, Inc. and that
 it will not use this program in any manner prohibited above.
 ---------------------------------------------------------------
  

 Cite this work as:
 Gaussian 16, Revision C.01,
 M. J. Frisch, G. W. Trucks, H. B. Schlegel, G. E. Scuseria, 
 M. A. Robb, J. R. Cheeseman, G. Scalmani, V. Barone, 
 G. A. Petersson, H. Nakatsuji, X. Li, M. Caricato, A. V. Marenich, 
 J. Bloino, B. G. Janesko, R. Gomperts, B. Mennucci, H. P. Hratchian, 
 J. V. Ortiz, A. F. Izmaylov, J. L. Sonnenberg, D. Williams-Young, 
 F. Ding, F. Lipparini, F. Egidi, J. Goings, B. Peng, A. Petrone, 
 T. Henderson, D. Ranasinghe, V. G. Zakrzewski, J. Gao, N. Rega, 
 G. Zheng, W. Liang, M. Hada, M. Ehara, K. Toyota, R. Fukuda, 
 J. Hasegawa, M. Ishida, T. Nakajima, Y. Honda, O. Kitao, H. Nakai, 
 T. Vreven, K. Throssell, J. A. Montgomery, Jr., J. E. Peralta, 
 F. Ogliaro, M. J. Bearpark, J. J. Heyd, E. N. Brothers, K. N. Kudin, 
 V. N. Staroverov, T. A. Keith, R. Kobayashi, J. Normand, 
 K. Raghavachari, A. P. Rendell, J. C. Burant, S. S. Iyengar, 
 J. Tomasi, M. Cossi, J. M. Millam, M. Klene, C. Adamo, R. Cammi, 
 J. W. Ochterski, R. L. Martin, K. Morokuma, O. Farkas, 
 J. B. Foresman, and D. J. Fox, Gaussian, Inc., Wallingford CT, 2019.
 
 ******************************************
 Gaussian 16:  AM64L-G16RevC.01  3-Jul-2019
                27-Jan-2021 
 ******************************************
 %chk=VIII_gtc_Best_geom_aug-cc-pV5Z.chk
 %nprocshared=16
 Will use up to   16 processors via shared memory.
 %mem=100GB
 -----------------
 #P HF aug-cc-pV5Z
 -----------------
 1/38=1,172=1/1;
 2/12=2,17=6,18=5,40=1/2;
 3/5=16,6=3,7=10,11=9,25=1,30=1/1,2,3;
 4//1;
 5/5=2,38=5/2;
 6/7=2,8=2,9=2,10=2,28=1/1;
 99/5=1,9=1/99;
 Leave Link    1 at Wed Jan 27 07:24:55 2021, MaxMem= 13421772800 cpu:               0.3 elap:               0.0
 (Enter /data2/software/Gaussian/g16_c01-gpu/g16/l101.exe)
 -------
 VIII_SP
 -------
 Symbolic Z-matrix:
 Charge =  0 Multiplicity = 1
 C
 O                    1    B1
 O                    1    B2       2    A1
 H                    2    B3       1    A2       3    D1       0
 C                    1    B4       3    A3       2    D2       0
 N                    5    B5       1    A4       3    D3       0
 H                    5    B6       1    A5       3    D4       0
 H                    5    B7       1    A6       3    D5       0
 H                    6    B8       5    A7       1    D6       0
 H                    6    B9       5    A8       1    D7       0
       Variables:
  B1                    1.35064                  
  B2                    1.19653                  
  B3                    0.96165                  
  B4                    1.51406                  
  B5                    1.44636                  
  B6                    1.09684                  
  B7                    1.09378                  
  B8                    1.00807                  
  B9                    1.0126                   
  A1                  120.39321                  
  A2                  110.57402                  
  A3                  124.09641                  
  A4                  110.35148                  
  A5                  106.10493                  
  A6                  108.59165                  
  A7                  112.08781                  
  A8                  109.66844                  
  D1                 -178.19299                  
  D2                  178.41709                  
  D3                   14.53424                  
  D4                 -109.33023                  
  D5                  135.75133                  
  D6                 -144.9572                   
  D7                  -23.85712                  
 
 ITRead=  0  0  0  0  0  0  0  0  0  0
 MicOpt= -1 -1 -1 -1 -1 -1 -1 -1 -1 -1
 NAtoms=     10 NQM=       10 NQMF=       0 NMMI=      0 NMMIF=      0
                NMic=       0 NMicF=      0.
                    Isotopes and Nuclear Properties:
 (Nuclear quadrupole moments (NQMom) in fm**2, nuclear magnetic moments (NMagM)
  in nuclear magnetons)

  Atom         1           2           3           4           5           6           7           8           9          10
 IAtWgt=          12          16          16           1          12          14           1           1           1           1
 AtmWgt=  12.0000000  15.9949146  15.9949146   1.0078250  12.0000000  14.0030740   1.0078250   1.0078250   1.0078250   1.0078250
 NucSpn=           0           0           0           1           0           2           1           1           1           1
 AtZEff=  -0.0000000  -0.0000000  -0.0000000  -0.0000000  -0.0000000  -0.0000000  -0.0000000  -0.0000000  -0.0000000  -0.0000000
 NQMom=    0.0000000   0.0000000   0.0000000   0.0000000   0.0000000   2.0440000   0.0000000   0.0000000   0.0000000   0.0000000
 NMagM=    0.0000000   0.0000000   0.0000000   2.7928460   0.0000000   0.4037610   2.7928460   2.7928460   2.7928460   2.7928460
 AtZNuc=   6.0000000   8.0000000   8.0000000   1.0000000   6.0000000   7.0000000   1.0000000   1.0000000   1.0000000   1.0000000
 Leave Link  101 at Wed Jan 27 07:24:56 2021, MaxMem= 13421772800 cpu:               1.2 elap:               0.1
 (Enter /data2/software/Gaussian/g16_c01-gpu/g16/l202.exe)
                          Input orientation:                          
 ---------------------------------------------------------------------
 Center     Atomic      Atomic             Coordinates (Angstroms)
 Number     Number       Type             X           Y           Z
 ---------------------------------------------------------------------
      1          6           0        0.000000    0.000000    0.000000
      2          8           0        0.000000    0.000000    1.350639
      3          8           0        1.032094    0.000000   -0.605362
      4          1           0       -0.899872   -0.028390    1.688581
      5          6           0       -1.366212    0.034634   -0.651657
      6          7           0       -1.259382   -0.273721   -2.060724
      7          1           0       -1.777130    1.030203   -0.444170
      8          1           0       -2.010889   -0.691992   -0.148913
      9          1           0       -1.923118    0.245663   -2.613800
     10          1           0       -0.324127   -0.061947   -2.385997
 ---------------------------------------------------------------------
                    Distance matrix (angstroms):
                    1          2          3          4          5
     1  C    0.000000
     2  O    1.350639   0.000000
     3  O    1.196529   2.211596   0.000000
     4  H    1.913604   0.961655   2.999245   0.000000
     5  C    1.514065   2.424237   2.399003   2.387082   0.000000
     6  N    2.430545   3.646692   2.728345   3.774483   1.446363
     7  H    2.101617   2.727792   2.996505   2.537484   1.096842
     8  H    2.131831   2.602150   3.153878   2.247468   1.093775
     9  H    3.254333   4.413106   3.581543   4.430871   2.050532
    10  H    2.408709   3.751179   2.239160   4.115191   2.025638
                    6          7          8          9         10
     6  N    0.000000
     7  H    2.140450   0.000000
     8  H    2.096362   1.762889   0.000000
     9  H    1.008066   2.311733   2.638668   0.000000
    10  H    1.012597   2.659831   2.871701   1.644168   0.000000
 Stoichiometry    C2H5NO2
 Framework group  C1[X(C2H5NO2)]
 Deg. of freedom    24
 Full point group                 C1      NOp   1
 Largest Abelian subgroup         C1      NOp   1
 Largest concise Abelian subgroup C1      NOp   1
                         Standard orientation:                         
 ---------------------------------------------------------------------
 Center     Atomic      Atomic             Coordinates (Angstroms)
 Number     Number       Type             X           Y           Z
 ---------------------------------------------------------------------
      1          6           0        0.546143    0.148212    0.012628
      2          8           0        1.729714   -0.499968   -0.044362
      3          8           0        0.511357    1.343991    0.036745
      4          1           0        1.592593   -1.450896   -0.085742
      5          6           0       -0.679769   -0.738038    0.076616
      6          7           0       -1.874850    0.037759   -0.172157
      7          1           0       -0.657798   -1.217003    1.063110
      8          1           0       -0.576213   -1.530916   -0.669685
      9          1           0       -2.658726   -0.288884    0.371019
     10          1           0       -1.702724    1.010149    0.051861
 ---------------------------------------------------------------------
 Rotational constants (GHZ):          10.3415312           4.0158603           2.9691541
 Leave Link  202 at Wed Jan 27 07:24:56 2021, MaxMem= 13421772800 cpu:               0.6 elap:               0.1
 (Enter /data2/software/Gaussian/g16_c01-gpu/g16/l301.exe)
 Standard basis: Aug-CC-pV5Z (5D, 7F)
 Ernie: Thresh=  0.10000D-02 Tol=  0.10000D-05 Strict=F.
 Ernie:  20 primitive shells out of 355 were deleted.
 There are  1435 symmetry adapted cartesian basis functions of A   symmetry.
 There are  1035 symmetry adapted basis functions of A   symmetry.
  1035 basis functions,  1565 primitive gaussians,  1435 cartesian basis functions
    20 alpha electrons       20 beta electrons
       nuclear repulsion energy       180.5379066241 Hartrees.
 IExCor=    0 DFT=F Ex=HF Corr=None ExCW=0 ScaHFX=  1.000000
 ScaDFX=  1.000000  1.000000  1.000000  1.000000 ScalE2=  1.000000  1.000000
 IRadAn=      5 IRanWt=     -1 IRanGd=            0 ICorTp=0 IEmpDi=  4
 NAtoms=   10 NActive=   10 NUniq=   10 SFac= 1.00D+00 NAtFMM=   60 NAOKFM=F Big=F
 Integral buffers will be    131072 words long.
 Raffenetti 1 integral format.
 Two-electron integral symmetry is turned on.
 Leave Link  301 at Wed Jan 27 07:24:56 2021, MaxMem= 13421772800 cpu:               0.6 elap:               0.1
 (Enter /data2/software/Gaussian/g16_c01-gpu/g16/l302.exe)
 NPDir=0 NMtPBC=     1 NCelOv=     1 NCel=       1 NClECP=     1 NCelD=      1
         NCelK=      1 NCelE2=     1 NClLst=     1 CellRange=     0.0.
 One-electron integrals computed using PRISM.
 One-electron integral symmetry used in STVInt
 NBasis=  1035 RedAO= T EigKep=  1.87D-06  NBF=  1035
 NBsUse=  1032 1.00D-06 EigRej=  9.49D-07 NBFU=  1032
 Leave Link  302 at Wed Jan 27 07:24:59 2021, MaxMem= 13421772800 cpu:              53.6 elap:               3.4
 (Enter /data2/software/Gaussian/g16_c01-gpu/g16/l303.exe)
 DipDrv:  MaxL=1.
 Leave Link  303 at Wed Jan 27 07:24:59 2021, MaxMem= 13421772800 cpu:               3.1 elap:               0.3
 (Enter /data2/software/Gaussian/g16_c01-gpu/g16/l401.exe)
 ExpMin= 2.07D-02 ExpMax= 1.64D+05 ExpMxC= 5.16D+02 IAcc=3 IRadAn=         5 AccDes= 0.00D+00
 Harris functional with IExCor=  205 and IRadAn=       5 diagonalized for initial guess.
 HarFok:  IExCor=  205 AccDes= 0.00D+00 IRadAn=         5 IDoV= 1 UseB2=F ITyADJ=14
 ICtDFT=  3500011 ScaDFX=  1.000000  1.000000  1.000000  1.000000
 FoFCou: FMM=F IPFlag=           0 FMFlag=      100000 FMFlg1=           0
         NFxFlg=           0 DoJE=T BraDBF=F KetDBF=T FulRan=T
         wScrn=  0.000000 ICntrl=       500 IOpCl=  0 I1Cent=   200000004 NGrid=           0
         NMat0=    1 NMatS0=      1 NMatT0=    0 NMatD0=    1 NMtDS0=    0 NMtDT0=    0
 Petite list used in FoFCou.
 Harris En= -283.254760899903    
 JPrj=0 DoOrth=F DoCkMO=F.
 Leave Link  401 at Wed Jan 27 07:25:07 2021, MaxMem= 13421772800 cpu:             127.3 elap:               8.1
 (Enter /data2/software/Gaussian/g16_c01-gpu/g16/l502.exe)
 Integral symmetry usage will be decided dynamically.
 Closed shell SCF:
 Using DIIS extrapolation, IDIIS=  1040.
 NGot= 13421772800 LenX= 13417620804 LenY= 13415560144
 Requested convergence on RMS density matrix=1.00D-08 within 128 cycles.
 Requested convergence on MAX density matrix=1.00D-06.
 Requested convergence on             energy=1.00D-06.
 No special actions if energy rises.
 Fock matrices will be formed incrementally for  20 cycles.

 Cycle   1  Pass 1  IDiag  1:
 FoFJK:  IHMeth= 1 ICntrl=       0 DoSepK=F KAlg= 0 I1Cent=           0 FoldK=F
 IRaf= 970000000 NMat=       1 IRICut=       1 DoRegI=T DoRafI=F ISym2E= 0 IDoP0=0 IntGTp=1.
 FoFCou: FMM=F IPFlag=           0 FMFlag=      100000 FMFlg1=           0
         NFxFlg=           0 DoJE=F BraDBF=F KetDBF=F FulRan=T
         wScrn=  0.000000 ICntrl=         0 IOpCl=  0 I1Cent=           0 NGrid=           0
         NMat0=    1 NMatS0=      1 NMatT0=    0 NMatD0=    1 NMtDS0=    0 NMtDT0=    0
 Symmetry not used in FoFCou.
 E= -282.712944590181    
 DIIS: error= 1.81D-02 at cycle   1 NSaved=   1.
 NSaved= 1 IEnMin= 1 EnMin= -282.712944590181     IErMin= 1 ErrMin= 1.81D-02
 ErrMax= 1.81D-02  0.00D+00 EMaxC= 1.00D-01 BMatC= 6.71D-01 BMatP= 6.71D-01
 IDIUse=3 WtCom= 8.19D-01 WtEn= 1.81D-01
 Coeff-Com:  0.100D+01
 Coeff-En:   0.100D+01
 Coeff:      0.100D+01
 Gap=     0.510 Goal=   None    Shift=    0.000
 GapD=    0.510 DampG=2.000 DampE=0.500 DampFc=1.0000 IDamp=-1.
 RMSDP=4.07D-04 MaxDP=5.09D-02              OVMax= 1.29D-01

 Cycle   2  Pass 1  IDiag  1:
 RMSU=  3.89D-04    CP:  9.34D-01
 E= -282.902454962745     Delta-E=       -0.189510372564 Rises=F Damp=F
 DIIS: error= 1.01D-02 at cycle   2 NSaved=   2.
 NSaved= 2 IEnMin= 2 EnMin= -282.902454962745     IErMin= 2 ErrMin= 1.01D-02
 ErrMax= 1.01D-02  0.00D+00 EMaxC= 1.00D-01 BMatC= 9.00D-02 BMatP= 6.71D-01
 IDIUse=3 WtCom= 8.99D-01 WtEn= 1.01D-01
 Coeff-Com:  0.195D+00 0.805D+00
 Coeff-En:   0.000D+00 0.100D+01
 Coeff:      0.175D+00 0.825D+00
 Gap=     0.460 Goal=   None    Shift=    0.000
 RMSDP=1.26D-04 MaxDP=2.12D-02 DE=-1.90D-01 OVMax= 6.03D-02

 Cycle   3  Pass 1  IDiag  1:
 RMSU=  1.08D-04    CP:  9.49D-01  8.47D-01
 E= -282.954706901914     Delta-E=       -0.052251939170 Rises=F Damp=F
 DIIS: error= 2.79D-03 at cycle   3 NSaved=   3.
 NSaved= 3 IEnMin= 3 EnMin= -282.954706901914     IErMin= 3 ErrMin= 2.79D-03
 ErrMax= 2.79D-03  0.00D+00 EMaxC= 1.00D-01 BMatC= 1.31D-02 BMatP= 9.00D-02
 IDIUse=3 WtCom= 9.72D-01 WtEn= 2.79D-02
 Coeff-Com: -0.252D-01 0.248D+00 0.777D+00
 Coeff-En:   0.000D+00 0.000D+00 0.100D+01
 Coeff:     -0.245D-01 0.241D+00 0.783D+00
 Gap=     0.429 Goal=   None    Shift=    0.000
 RMSDP=3.64D-05 MaxDP=5.76D-03 DE=-5.23D-02 OVMax= 2.87D-02

 Cycle   4  Pass 1  IDiag  1:
 RMSU=  2.17D-05    CP:  9.46D-01  9.03D-01  8.25D-01
 E= -282.963001016614     Delta-E=       -0.008294114700 Rises=F Damp=F
 DIIS: error= 9.35D-04 at cycle   4 NSaved=   4.
 NSaved= 4 IEnMin= 4 EnMin= -282.963001016614     IErMin= 4 ErrMin= 9.35D-04
 ErrMax= 9.35D-04  0.00D+00 EMaxC= 1.00D-01 BMatC= 4.07D-04 BMatP= 1.31D-02
 IDIUse=3 WtCom= 9.91D-01 WtEn= 9.35D-03
 Coeff-Com: -0.113D-01 0.572D-01 0.239D+00 0.715D+00
 Coeff-En:   0.000D+00 0.000D+00 0.000D+00 0.100D+01
 Coeff:     -0.112D-01 0.566D-01 0.237D+00 0.718D+00
 Gap=     0.423 Goal=   None    Shift=    0.000
 RMSDP=8.29D-06 MaxDP=1.08D-03 DE=-8.29D-03 OVMax= 5.16D-03

 Cycle   5  Pass 1  IDiag  1:
 RMSU=  7.50D-06    CP:  9.46D-01  9.06D-01  8.51D-01  9.20D-01
 E= -282.963351566029     Delta-E=       -0.000350549415 Rises=F Damp=F
 DIIS: error= 2.08D-04 at cycle   5 NSaved=   5.
 NSaved= 5 IEnMin= 5 EnMin= -282.963351566029     IErMin= 5 ErrMin= 2.08D-04
 ErrMax= 2.08D-04  0.00D+00 EMaxC= 1.00D-01 BMatC= 3.03D-05 BMatP= 4.07D-04
 IDIUse=3 WtCom= 9.98D-01 WtEn= 2.08D-03
 Coeff-Com:  0.223D-02-0.237D-01-0.794D-01 0.308D-01 0.107D+01
 Coeff-En:   0.000D+00 0.000D+00 0.000D+00 0.000D+00 0.100D+01
 Coeff:      0.223D-02-0.237D-01-0.792D-01 0.307D-01 0.107D+01
 Gap=     0.425 Goal=   None    Shift=    0.000
 RMSDP=4.12D-06 MaxDP=5.77D-04 DE=-3.51D-04 OVMax= 3.86D-03

 Cycle   6  Pass 1  IDiag  1:
 RMSU=  2.16D-06    CP:  9.46D-01  9.07D-01  8.59D-01  1.05D+00  1.23D+00
 E= -282.963409157665     Delta-E=       -0.000057591636 Rises=F Damp=F
 DIIS: error= 9.02D-05 at cycle   6 NSaved=   6.
 NSaved= 6 IEnMin= 6 EnMin= -282.963409157665     IErMin= 6 ErrMin= 9.02D-05
 ErrMax= 9.02D-05  0.00D+00 EMaxC= 1.00D-01 BMatC= 4.35D-06 BMatP= 3.03D-05
 IDIUse=1 WtCom= 1.00D+00 WtEn= 0.00D+00
 Coeff-Com:  0.145D-02-0.102D-01-0.366D-01-0.763D-01 0.175D+00 0.946D+00
 Coeff:      0.145D-02-0.102D-01-0.366D-01-0.763D-01 0.175D+00 0.946D+00
 Gap=     0.425 Goal=   None    Shift=    0.000
 RMSDP=1.64D-06 MaxDP=1.79D-04 DE=-5.76D-05 OVMax= 1.15D-03

 Cycle   7  Pass 1  IDiag  1:
 RMSU=  8.49D-07    CP:  9.46D-01  9.08D-01  8.62D-01  1.09D+00  1.37D+00
                    CP:  1.21D+00
 E= -282.963417417594     Delta-E=       -0.000008259930 Rises=F Damp=F
 DIIS: error= 4.83D-05 at cycle   7 NSaved=   7.
 NSaved= 7 IEnMin= 7 EnMin= -282.963417417594     IErMin= 7 ErrMin= 4.83D-05
 ErrMax= 4.83D-05  0.00D+00 EMaxC= 1.00D-01 BMatC= 5.79D-07 BMatP= 4.35D-06
 IDIUse=1 WtCom= 1.00D+00 WtEn= 0.00D+00
 Coeff-Com: -0.198D-03 0.241D-02 0.101D-01-0.155D-01-0.120D+00 0.253D-01
 Coeff-Com:  0.110D+01
 Coeff:     -0.198D-03 0.241D-02 0.101D-01-0.155D-01-0.120D+00 0.253D-01
 Coeff:      0.110D+01
 Gap=     0.425 Goal=   None    Shift=    0.000
 RMSDP=7.11D-07 MaxDP=8.82D-05 DE=-8.26D-06 OVMax= 7.52D-04

 Cycle   8  Pass 1  IDiag  1:
 RMSU=  2.70D-07    CP:  9.46D-01  9.08D-01  8.63D-01  1.09D+00  1.41D+00
                    CP:  1.42D+00  1.35D+00
 E= -282.963418902908     Delta-E=       -0.000001485314 Rises=F Damp=F
 DIIS: error= 1.06D-05 at cycle   8 NSaved=   8.
 NSaved= 8 IEnMin= 8 EnMin= -282.963418902908     IErMin= 8 ErrMin= 1.06D-05
 ErrMax= 1.06D-05  0.00D+00 EMaxC= 1.00D-01 BMatC= 8.24D-08 BMatP= 5.79D-07
 IDIUse=1 WtCom= 1.00D+00 WtEn= 0.00D+00
 Coeff-Com: -0.175D-03 0.117D-02 0.443D-02 0.640D-02-0.556D-02-0.123D+00
 Coeff-Com: -0.113D+00 0.123D+01
 Coeff:     -0.175D-03 0.117D-02 0.443D-02 0.640D-02-0.556D-02-0.123D+00
 Coeff:     -0.113D+00 0.123D+01
 Gap=     0.425 Goal=   None    Shift=    0.000
 RMSDP=3.11D-07 MaxDP=3.96D-05 DE=-1.49D-06 OVMax= 3.13D-04

 Cycle   9  Pass 1  IDiag  1:
 RMSU=  1.10D-07    CP:  9.46D-01  9.08D-01  8.63D-01  1.09D+00  1.42D+00
                    CP:  1.49D+00  1.57D+00  1.49D+00
 E= -282.963419125352     Delta-E=       -0.000000222444 Rises=F Damp=F
 DIIS: error= 3.81D-06 at cycle   9 NSaved=   9.
 NSaved= 9 IEnMin= 9 EnMin= -282.963419125352     IErMin= 9 ErrMin= 3.81D-06
 ErrMax= 3.81D-06  0.00D+00 EMaxC= 1.00D-01 BMatC= 1.09D-08 BMatP= 8.24D-08
 IDIUse=1 WtCom= 1.00D+00 WtEn= 0.00D+00
 Coeff-Com: -0.105D-04-0.716D-04-0.309D-03 0.241D-02 0.161D-01-0.286D-01
 Coeff-Com: -0.159D+00 0.238D+00 0.932D+00
 Coeff:     -0.105D-04-0.716D-04-0.309D-03 0.241D-02 0.161D-01-0.286D-01
 Coeff:     -0.159D+00 0.238D+00 0.932D+00
 Gap=     0.425 Goal=   None    Shift=    0.000
 RMSDP=8.45D-08 MaxDP=1.16D-05 DE=-2.22D-07 OVMax= 9.10D-05

 Cycle  10  Pass 1  IDiag  1:
 RMSU=  4.46D-08    CP:  9.46D-01  9.08D-01  8.63D-01  1.09D+00  1.43D+00
                    CP:  1.50D+00  1.61D+00  1.68D+00  1.20D+00
 E= -282.963419147213     Delta-E=       -0.000000021862 Rises=F Damp=F
 DIIS: error= 9.19D-07 at cycle  10 NSaved=  10.
 NSaved=10 IEnMin=10 EnMin= -282.963419147213     IErMin=10 ErrMin= 9.19D-07
 ErrMax= 9.19D-07  0.00D+00 EMaxC= 1.00D-01 BMatC= 1.18D-09 BMatP= 1.09D-08
 IDIUse=1 WtCom= 1.00D+00 WtEn= 0.00D+00
 Coeff-Com:  0.251D-04-0.186D-03-0.643D-03-0.124D-02 0.206D-02 0.166D-01
 Coeff-Com:  0.135D-01-0.180D+00 0.344D-01 0.112D+01
 Coeff:      0.251D-04-0.186D-03-0.643D-03-0.124D-02 0.206D-02 0.166D-01
 Coeff:      0.135D-01-0.180D+00 0.344D-01 0.112D+01
 Gap=     0.425 Goal=   None    Shift=    0.000
 RMSDP=3.42D-08 MaxDP=4.80D-06 DE=-2.19D-08 OVMax= 2.91D-05

 Cycle  11  Pass 1  IDiag  1:
 RMSU=  1.26D-08    CP:  9.46D-01  9.08D-01  8.64D-01  1.09D+00  1.43D+00
                    CP:  1.50D+00  1.62D+00  1.74D+00  1.40D+00  1.32D+00
 E= -282.963419149869     Delta-E=       -0.000000002656 Rises=F Damp=F
 DIIS: error= 2.52D-07 at cycle  11 NSaved=  11.
 NSaved=11 IEnMin=11 EnMin= -282.963419149869     IErMin=11 ErrMin= 2.52D-07
 ErrMax= 2.52D-07  0.00D+00 EMaxC= 1.00D-01 BMatC= 6.93D-11 BMatP= 1.18D-09
 IDIUse=1 WtCom= 1.00D+00 WtEn= 0.00D+00
 Coeff-Com: -0.640D-06 0.126D-04 0.759D-04-0.106D-03-0.103D-02 0.114D-03
 Coeff-Com:  0.972D-02 0.275D-02-0.745D-01-0.135D+00 0.120D+01
 Coeff:     -0.640D-06 0.126D-04 0.759D-04-0.106D-03-0.103D-02 0.114D-03
 Coeff:      0.972D-02 0.275D-02-0.745D-01-0.135D+00 0.120D+01
 Gap=     0.425 Goal=   None    Shift=    0.000
 RMSDP=9.94D-09 MaxDP=9.85D-07 DE=-2.66D-09 OVMax= 5.44D-06

 SCF Done:  E(RHF) =  -282.963419150     A.U. after   11 cycles
            NFock= 11  Conv=0.99D-08     -V/T= 2.0010
 KE= 2.826746768491D+02 PE=-1.027408491119D+03 EE= 2.812324884954D+02
 Leave Link  502 at Wed Jan 27 09:08:21 2021, MaxMem= 13421772800 cpu:           99134.5 elap:            6193.6
 (Enter /data2/software/Gaussian/g16_c01-gpu/g16/l601.exe)
 Copying SCF densities to generalized density rwf, IOpCl= 0 IROHF=0.

 **********************************************************************

            Population analysis using the SCF Density.

 **********************************************************************

 Orbital symmetries:
       Occupied  (A) (A) (A) (A) (A) (A) (A) (A) (A) (A) (A) (A)
                 (A) (A) (A) (A) (A) (A) (A) (A)
       Virtual   (A) (A) (A) (A) (A) (A) (A) (A) (A) (A) (A) (A)
                 (A) (A) (A) (A) (A) (A) (A) (A) (A) (A) (A) (A)
                 (A) (A) (A) (A) (A) (A) (A) (A) (A) (A) (A) (A)
                 (A) (A) (A) (A) (A) (A) (A) (A) (A) (A) (A) (A)
                 (A) (A) (A) (A) (A) (A) (A) (A) (A) (A) (A) (A)
                 (A) (A) (A) (A) (A) (A) (A) (A) (A) (A) (A) (A)
                 (A) (A) (A) (A) (A) (A) (A) (A) (A) (A) (A) (A)
                 (A) (A) (A) (A) (A) (A) (A) (A) (A) (A) (A) (A)
                 (A) (A) (A) (A) (A) (A) (A) (A) (A) (A) (A) (A)
                 (A) (A) (A) (A) (A) (A) (A) (A) (A) (A) (A) (A)
                 (A) (A) (A) (A) (A) (A) (A) (A) (A) (A) (A) (A)
                 (A) (A) (A) (A) (A) (A) (A) (A) (A) (A) (A) (A)
                 (A) (A) (A) (A) (A) (A) (A) (A) (A) (A) (A) (A)
                 (A) (A) (A) (A) (A) (A) (A) (A) (A) (A) (A) (A)
                 (A) (A) (A) (A) (A) (A) (A) (A) (A) (A) (A) (A)
                 (A) (A) (A) (A) (A) (A) (A) (A) (A) (A) (A) (A)
                 (A) (A) (A) (A) (A) (A) (A) (A) (A) (A) (A) (A)
                 (A) (A) (A) (A) (A) (A) (A) (A) (A) (A) (A) (A)
                 (A) (A) (A) (A) (A) (A) (A) (A) (A) (A) (A) (A)
                 (A) (A) (A) (A) (A) (A) (A) (A) (A) (A) (A) (A)
                 (A) (A) (A) (A) (A) (A) (A) (A) (A) (A) (A) (A)
                 (A) (A) (A) (A) (A) (A) (A) (A) (A) (A) (A) (A)
                 (A) (A) (A) (A) (A) (A) (A) (A) (A) (A) (A) (A)
                 (A) (A) (A) (A) (A) (A) (A) (A) (A) (A) (A) (A)
                 (A) (A) (A) (A) (A) (A) (A) (A) (A) (A) (A) (A)
                 (A) (A) (A) (A) (A) (A) (A) (A) (A) (A) (A) (A)
                 (A) (A) (A) (A) (A) (A) (A) (A) (A) (A) (A) (A)
                 (A) (A) (A) (A) (A) (A) (A) (A) (A) (A) (A) (A)
                 (A) (A) (A) (A) (A) (A) (A) (A) (A) (A) (A) (A)
                 (A) (A) (A) (A) (A) (A) (A) (A) (A) (A) (A) (A)
                 (A) (A) (A) (A) (A) (A) (A) (A) (A) (A) (A) (A)
                 (A) (A) (A) (A) (A) (A) (A) (A) (A) (A) (A) (A)
                 (A) (A) (A) (A) (A) (A) (A) (A) (A) (A) (A) (A)
                 (A) (A) (A) (A) (A) (A) (A) (A) (A) (A) (A) (A)
                 (A) (A) (A) (A) (A) (A) (A) (A) (A) (A) (A) (A)
                 (A) (A) (A) (A) (A) (A) (A) (A) (A) (A) (A) (A)
                 (A) (A) (A) (A) (A) (A) (A) (A) (A) (A) (A) (A)
                 (A) (A) (A) (A) (A) (A) (A) (A) (A) (A) (A) (A)
                 (A) (A) (A) (A) (A) (A) (A) (A) (A) (A) (A) (A)
                 (A) (A) (A) (A) (A) (A) (A) (A) (A) (A) (A) (A)
                 (A) (A) (A) (A) (A) (A) (A) (A) (A) (A) (A) (A)
                 (A) (A) (A) (A) (A) (A) (A) (A) (A) (A) (A) (A)
                 (A) (A) (A) (A) (A) (A) (A) (A) (A) (A) (A) (A)
                 (A) (A) (A) (A) (A) (A) (A) (A) (A) (A) (A) (A)
                 (A) (A) (A) (A) (A) (A) (A) (A) (A) (A) (A) (A)
                 (A) (A) (A) (A) (A) (A) (A) (A) (A) (A) (A) (A)
                 (A) (A) (A) (A) (A) (A) (A) (A) (A) (A) (A) (A)
                 (A) (A) (A) (A) (A) (A) (A) (A) (A) (A) (A) (A)
                 (A) (A) (A) (A) (A) (A) (A) (A) (A) (A) (A) (A)
                 (A) (A) (A) (A) (A) (A) (A) (A) (A) (A) (A) (A)
                 (A) (A) (A) (A) (A) (A) (A) (A) (A) (A) (A) (A)
                 (A) (A) (A) (A) (A) (A) (A) (A) (A) (A) (A) (A)
                 (A) (A) (A) (A) (A) (A) (A) (A) (A) (A) (A) (A)
                 (A) (A) (A) (A) (A) (A) (A) (A) (A) (A) (A) (A)
                 (A) (A) (A) (A) (A) (A) (A) (A) (A) (A) (A) (A)
                 (A) (A) (A) (A) (A) (A) (A) (A) (A) (A) (A) (A)
                 (A) (A) (A) (A) (A) (A) (A) (A) (A) (A) (A) (A)
                 (A) (A) (A) (A) (A) (A) (A) (A) (A) (A) (A) (A)
                 (A) (A) (A) (A) (A) (A) (A) (A) (A) (A) (A) (A)
                 (A) (A) (A) (A) (A) (A) (A) (A) (A) (A) (A) (A)
                 (A) (A) (A) (A) (A) (A) (A) (A) (A) (A) (A) (A)
                 (A) (A) (A) (A) (A) (A) (A) (A) (A) (A) (A) (A)
                 (A) (A) (A) (A) (A) (A) (A) (A) (A) (A) (A) (A)
                 (A) (A) (A) (A) (A) (A) (A) (A) (A) (A) (A) (A)
                 (A) (A) (A) (A) (A) (A) (A) (A) (A) (A) (A) (A)
                 (A) (A) (A) (A) (A) (A) (A) (A) (A) (A) (A) (A)
                 (A) (A) (A) (A) (A) (A) (A) (A) (A) (A) (A) (A)
                 (A) (A) (A) (A) (A) (A) (A) (A) (A) (A) (A) (A)
                 (A) (A) (A) (A) (A) (A) (A) (A) (A) (A) (A) (A)
                 (A) (A) (A) (A) (A) (A) (A) (A) (A) (A) (A) (A)
                 (A) (A) (A) (A) (A) (A) (A) (A) (A) (A) (A) (A)
                 (A) (A) (A) (A) (A) (A) (A) (A) (A) (A) (A) (A)
                 (A) (A) (A) (A) (A) (A) (A) (A) (A) (A) (A) (A)
                 (A) (A) (A) (A) (A) (A) (A) (A) (A) (A) (A) (A)
                 (A) (A) (A) (A) (A) (A) (A) (A) (A) (A) (A) (A)
                 (A) (A) (A) (A) (A) (A) (A) (A) (A) (A) (A) (A)
                 (A) (A) (A) (A) (A) (A) (A) (A) (A) (A) (A) (A)
                 (A) (A) (A) (A) (A) (A) (A) (A) (A) (A) (A) (A)
                 (A) (A) (A) (A) (A) (A) (A) (A) (A) (A) (A) (A)
                 (A) (A) (A) (A) (A) (A) (A) (A) (A) (A) (A) (A)
                 (A) (A) (A) (A) (A) (A) (A) (A) (A) (A) (A) (A)
                 (A) (A) (A) (A) (A) (A) (A) (A) (A) (A) (A) (A)
                 (A) (A) (A) (A) (A) (A) (A) (A) (A) (A) (A) (A)
                 (A) (A) (A) (A) (A) (A) (A) (A) (A) (A) (A) (A)
                 (A) (A) (A) (A)
 The electronic state is 1-A.
 Alpha  occ. eigenvalues --  -20.61870 -20.55016 -15.55201 -11.39021 -11.28923
 Alpha  occ. eigenvalues --   -1.47128  -1.37563  -1.20118  -0.97759  -0.83662
 Alpha  occ. eigenvalues --   -0.74610  -0.68211  -0.67390  -0.65560  -0.60264
 Alpha  occ. eigenvalues --   -0.58465  -0.56473  -0.49013  -0.46096  -0.41097
 Alpha virt. eigenvalues --    0.01408   0.02452   0.03038   0.03911   0.04869
 Alpha virt. eigenvalues --    0.05938   0.07191   0.07241   0.08233   0.08547
 Alpha virt. eigenvalues --    0.08845   0.10204   0.10477   0.11103   0.12460
 Alpha virt. eigenvalues --    0.12961   0.13729   0.14206   0.14907   0.15558
 Alpha virt. eigenvalues --    0.15819   0.17228   0.17776   0.18325   0.18826
 Alpha virt. eigenvalues --    0.19692   0.19744   0.20160   0.22127   0.22719
 Alpha virt. eigenvalues --    0.24102   0.24321   0.24704   0.25496   0.25984
 Alpha virt. eigenvalues --    0.26251   0.26522   0.27695   0.28556   0.29277
 Alpha virt. eigenvalues --    0.29490   0.30379   0.30922   0.31580   0.31674
 Alpha virt. eigenvalues --    0.32329   0.33486   0.34255   0.34955   0.35696
 Alpha virt. eigenvalues --    0.36350   0.36751   0.37093   0.37348   0.38316
 Alpha virt. eigenvalues --    0.39279   0.39779   0.41174   0.41875   0.43407
 Alpha virt. eigenvalues --    0.44377   0.45131   0.45886   0.46181   0.46947
 Alpha virt. eigenvalues --    0.47426   0.48830   0.49512   0.50367   0.50608
 Alpha virt. eigenvalues --    0.53079   0.53469   0.53638   0.54369   0.54447
 Alpha virt. eigenvalues --    0.55978   0.56598   0.57292   0.57488   0.58599
 Alpha virt. eigenvalues --    0.59193   0.60332   0.61093   0.61562   0.62128
 Alpha virt. eigenvalues --    0.62905   0.63570   0.64125   0.64833   0.64994
 Alpha virt. eigenvalues --    0.65737   0.67077   0.67626   0.67932   0.68553
 Alpha virt. eigenvalues --    0.69346   0.69660   0.70286   0.70570   0.71464
 Alpha virt. eigenvalues --    0.71685   0.72554   0.72599   0.72941   0.73893
 Alpha virt. eigenvalues --    0.75051   0.75912   0.76957   0.77468   0.77575
 Alpha virt. eigenvalues --    0.78526   0.80059   0.80850   0.81350   0.82005
 Alpha virt. eigenvalues --    0.82787   0.83457   0.83943   0.84403   0.84920
 Alpha virt. eigenvalues --    0.85811   0.86685   0.88289   0.89218   0.90107
 Alpha virt. eigenvalues --    0.90454   0.92970   0.93522   0.93671   0.94798
 Alpha virt. eigenvalues --    0.95470   0.97490   0.99056   1.00368   1.01595
 Alpha virt. eigenvalues --    1.03308   1.04012   1.05448   1.08345   1.09219
 Alpha virt. eigenvalues --    1.09349   1.10477   1.11573   1.11708   1.14231
 Alpha virt. eigenvalues --    1.15347   1.16617   1.17080   1.18012   1.19379
 Alpha virt. eigenvalues --    1.19639   1.20735   1.21198   1.21837   1.22906
 Alpha virt. eigenvalues --    1.23426   1.23801   1.25399   1.25808   1.26287
 Alpha virt. eigenvalues --    1.27477   1.27741   1.28321   1.29987   1.30607
 Alpha virt. eigenvalues --    1.31305   1.31478   1.32666   1.33375   1.33977
 Alpha virt. eigenvalues --    1.34841   1.35350   1.35975   1.36577   1.37079
 Alpha virt. eigenvalues --    1.38119   1.39101   1.39733   1.41080   1.41569
 Alpha virt. eigenvalues --    1.42550   1.43421   1.43735   1.44300   1.45317
 Alpha virt. eigenvalues --    1.45829   1.46379   1.47763   1.48337   1.49768
 Alpha virt. eigenvalues --    1.49873   1.50921   1.51192   1.51893   1.52200
 Alpha virt. eigenvalues --    1.53902   1.54961   1.56770   1.57093   1.57890
 Alpha virt. eigenvalues --    1.58387   1.59594   1.60615   1.60887   1.62753
 Alpha virt. eigenvalues --    1.64047   1.64661   1.65854   1.66593   1.67070
 Alpha virt. eigenvalues --    1.68538   1.69253   1.70195   1.71007   1.71959
 Alpha virt. eigenvalues --    1.72174   1.73269   1.74165   1.76151   1.76542
 Alpha virt. eigenvalues --    1.77346   1.77985   1.79264   1.80411   1.81839
 Alpha virt. eigenvalues --    1.82733   1.84206   1.85782   1.86528   1.87275
 Alpha virt. eigenvalues --    1.88898   1.90207   1.90669   1.92421   1.93401
 Alpha virt. eigenvalues --    1.94320   1.98031   1.98387   2.00085   2.02522
 Alpha virt. eigenvalues --    2.03161   2.03905   2.04814   2.06785   2.07559
 Alpha virt. eigenvalues --    2.09310   2.11148   2.12235   2.13005   2.14395
 Alpha virt. eigenvalues --    2.15595   2.16950   2.17715   2.17941   2.19596
 Alpha virt. eigenvalues --    2.21347   2.22367   2.23921   2.24757   2.25124
 Alpha virt. eigenvalues --    2.27321   2.29084   2.29294   2.30033   2.31553
 Alpha virt. eigenvalues --    2.32224   2.32976   2.35469   2.35964   2.38482
 Alpha virt. eigenvalues --    2.39485   2.41020   2.41872   2.43147   2.44378
 Alpha virt. eigenvalues --    2.46456   2.47574   2.48792   2.50226   2.52879
 Alpha virt. eigenvalues --    2.53573   2.54238   2.55025   2.56800   2.57379
 Alpha virt. eigenvalues --    2.58939   2.61035   2.61386   2.63511   2.63923
 Alpha virt. eigenvalues --    2.66320   2.67839   2.68939   2.69084   2.70215
 Alpha virt. eigenvalues --    2.70625   2.72449   2.74120   2.75264   2.76533
 Alpha virt. eigenvalues --    2.78737   2.80150   2.83312   2.83861   2.85841
 Alpha virt. eigenvalues --    2.86654   2.88560   2.89734   2.91266   2.91933
 Alpha virt. eigenvalues --    2.93344   2.93998   2.95711   2.96390   2.97346
 Alpha virt. eigenvalues --    2.99819   3.01815   3.02366   3.03812   3.04985
 Alpha virt. eigenvalues --    3.06535   3.07246   3.07916   3.09303   3.10740
 Alpha virt. eigenvalues --    3.11651   3.12399   3.13118   3.15474   3.15951
 Alpha virt. eigenvalues --    3.17708   3.19047   3.19399   3.21506   3.21971
 Alpha virt. eigenvalues --    3.22183   3.23844   3.24606   3.25534   3.25909
 Alpha virt. eigenvalues --    3.26999   3.28541   3.29909   3.30539   3.32050
 Alpha virt. eigenvalues --    3.32981   3.34168   3.35694   3.36108   3.37855
 Alpha virt. eigenvalues --    3.38604   3.39909   3.41362   3.41970   3.43073
 Alpha virt. eigenvalues --    3.44827   3.45421   3.46675   3.47322   3.49661
 Alpha virt. eigenvalues --    3.50424   3.51208   3.53108   3.53459   3.55172
 Alpha virt. eigenvalues --    3.55821   3.57071   3.58519   3.59297   3.60477
 Alpha virt. eigenvalues --    3.60935   3.62791   3.63544   3.64697   3.67335
 Alpha virt. eigenvalues --    3.67758   3.68457   3.70225   3.71330   3.72833
 Alpha virt. eigenvalues --    3.73653   3.74841   3.77123   3.77938   3.78306
 Alpha virt. eigenvalues --    3.78927   3.80563   3.81124   3.81512   3.82920
 Alpha virt. eigenvalues --    3.83592   3.84551   3.85515   3.87178   3.87509
 Alpha virt. eigenvalues --    3.90198   3.91268   3.91632   3.92734   3.93819
 Alpha virt. eigenvalues --    3.96575   3.97938   3.98489   3.99671   4.01890
 Alpha virt. eigenvalues --    4.02505   4.03317   4.04928   4.05252   4.06059
 Alpha virt. eigenvalues --    4.09119   4.09419   4.11215   4.11681   4.12187
 Alpha virt. eigenvalues --    4.13899   4.16401   4.18138   4.19627   4.20853
 Alpha virt. eigenvalues --    4.24813   4.25581   4.26903   4.27598   4.28303
 Alpha virt. eigenvalues --    4.29195   4.31867   4.32280   4.33363   4.34845
 Alpha virt. eigenvalues --    4.37341   4.38492   4.39636   4.41226   4.42258
 Alpha virt. eigenvalues --    4.42872   4.43545   4.45388   4.48757   4.49820
 Alpha virt. eigenvalues --    4.50015   4.52788   4.55370   4.57002   4.57998
 Alpha virt. eigenvalues --    4.58326   4.60648   4.62497   4.63417   4.66376
 Alpha virt. eigenvalues --    4.68203   4.70875   4.73837   4.74241   4.75477
 Alpha virt. eigenvalues --    4.76330   4.77703   4.80261   4.82686   4.83434
 Alpha virt. eigenvalues --    4.86642   4.87414   4.88875   4.90181   4.91080
 Alpha virt. eigenvalues --    4.96694   4.97653   4.99203   4.99856   5.01947
 Alpha virt. eigenvalues --    5.05150   5.06747   5.09222   5.09985   5.10441
 Alpha virt. eigenvalues --    5.13341   5.15333   5.15997   5.19884   5.21724
 Alpha virt. eigenvalues --    5.24549   5.26374   5.27449   5.30770   5.31966
 Alpha virt. eigenvalues --    5.34108   5.35874   5.38175   5.39412   5.40221
 Alpha virt. eigenvalues --    5.41948   5.43204   5.44413   5.46161   5.48659
 Alpha virt. eigenvalues --    5.48970   5.50166   5.51588   5.53632   5.57221
 Alpha virt. eigenvalues --    5.59184   5.62423   5.63619   5.65204   5.65926
 Alpha virt. eigenvalues --    5.66661   5.67246   5.70633   5.72342   5.73411
 Alpha virt. eigenvalues --    5.76978   5.78265   5.81575   5.82545   5.84295
 Alpha virt. eigenvalues --    5.85135   5.88466   5.89520   5.93595   5.95450
 Alpha virt. eigenvalues --    5.96355   5.99131   5.99170   6.03576   6.04181
 Alpha virt. eigenvalues --    6.06136   6.06175   6.08492   6.10693   6.10995
 Alpha virt. eigenvalues --    6.12824   6.14692   6.17117   6.18269   6.19663
 Alpha virt. eigenvalues --    6.23841   6.25483   6.27919   6.29046   6.30038
 Alpha virt. eigenvalues --    6.31113   6.35550   6.38160   6.39429   6.41187
 Alpha virt. eigenvalues --    6.43958   6.45231   6.47408   6.48781   6.49798
 Alpha virt. eigenvalues --    6.52399   6.53529   6.55184   6.56676   6.58081
 Alpha virt. eigenvalues --    6.59000   6.61829   6.64174   6.66264   6.67676
 Alpha virt. eigenvalues --    6.73128   6.74225   6.75914   6.78084   6.79462
 Alpha virt. eigenvalues --    6.80305   6.83172   6.85615   6.89757   6.91019
 Alpha virt. eigenvalues --    6.94981   6.96824   6.99773   7.00144   7.01296
 Alpha virt. eigenvalues --    7.02864   7.04679   7.07792   7.08724   7.09528
 Alpha virt. eigenvalues --    7.13661   7.16826   7.18722   7.21046   7.23054
 Alpha virt. eigenvalues --    7.24309   7.24703   7.28812   7.31432   7.33462
 Alpha virt. eigenvalues --    7.34551   7.37081   7.39694   7.40370   7.41218
 Alpha virt. eigenvalues --    7.45317   7.46332   7.47316   7.49012   7.50940
 Alpha virt. eigenvalues --    7.52114   7.53868   7.54855   7.56943   7.57285
 Alpha virt. eigenvalues --    7.59915   7.61680   7.62886   7.65381   7.67802
 Alpha virt. eigenvalues --    7.69524   7.71261   7.73230   7.75854   7.77670
 Alpha virt. eigenvalues --    7.79433   7.81166   7.84538   7.85965   7.89224
 Alpha virt. eigenvalues --    7.90698   7.92960   7.93315   7.95667   7.98222
 Alpha virt. eigenvalues --    8.02167   8.04963   8.06580   8.09513   8.11637
 Alpha virt. eigenvalues --    8.12660   8.15291   8.16243   8.19524   8.22268
 Alpha virt. eigenvalues --    8.23779   8.24568   8.27667   8.28805   8.31112
 Alpha virt. eigenvalues --    8.33279   8.36847   8.38853   8.43284   8.43798
 Alpha virt. eigenvalues --    8.46846   8.48561   8.50814   8.53445   8.54836
 Alpha virt. eigenvalues --    8.58654   8.60458   8.63754   8.66567   8.69607
 Alpha virt. eigenvalues --    8.72508   8.75137   8.76966   8.79056   8.80981
 Alpha virt. eigenvalues --    8.84372   8.84705   8.88210   8.91912   8.95059
 Alpha virt. eigenvalues --    8.97684   8.99305   9.04902   9.06545   9.12929
 Alpha virt. eigenvalues --    9.14385   9.16030   9.19200   9.20854   9.24330
 Alpha virt. eigenvalues --    9.31784   9.33220   9.40354   9.45888   9.49114
 Alpha virt. eigenvalues --    9.51247   9.57871   9.62228   9.63126   9.66282
 Alpha virt. eigenvalues --    9.69713   9.70758   9.74314   9.80353   9.84112
 Alpha virt. eigenvalues --    9.88643   9.90591   9.92402   9.95590  10.00769
 Alpha virt. eigenvalues --   10.06608  10.09010  10.11365  10.17979  10.21453
 Alpha virt. eigenvalues --   10.26194  10.28867  10.32254  10.33624  10.36600
 Alpha virt. eigenvalues --   10.42623  10.45156  10.50879  10.53053  10.61988
 Alpha virt. eigenvalues --   10.66192  10.68768  10.71353  10.73137  10.78978
 Alpha virt. eigenvalues --   10.80444  10.87319  10.94067  10.96333  10.99660
 Alpha virt. eigenvalues --   11.11543  11.14604  11.17297  11.19134  11.20917
 Alpha virt. eigenvalues --   11.29343  11.33721  11.37072  11.43827  11.45554
 Alpha virt. eigenvalues --   11.51312  11.53102  11.58429  11.64144  11.69462
 Alpha virt. eigenvalues --   11.70430  11.73606  11.82471  11.88557  11.93077
 Alpha virt. eigenvalues --   11.96312  12.02467  12.08080  12.14636  12.16191
 Alpha virt. eigenvalues --   12.21795  12.24324  12.33860  12.36881  12.39591
 Alpha virt. eigenvalues --   12.41596  12.48931  12.54078  12.64147  12.67909
 Alpha virt. eigenvalues --   12.68989  12.73092  12.78439  12.79724  12.84588
 Alpha virt. eigenvalues --   12.90288  12.98256  13.00842  13.05260  13.10499
 Alpha virt. eigenvalues --   13.13912  13.15926  13.24731  13.27403  13.29453
 Alpha virt. eigenvalues --   13.32652  13.34339  13.39509  13.41396  13.42186
 Alpha virt. eigenvalues --   13.45029  13.46708  13.47970  13.51094  13.52000
 Alpha virt. eigenvalues --   13.55075  13.56280  13.59607  13.64779  13.69788
 Alpha virt. eigenvalues --   13.70458  13.72490  13.75932  13.78336  13.80525
 Alpha virt. eigenvalues --   13.83598  13.84318  13.85784  13.90689  13.92933
 Alpha virt. eigenvalues --   13.93418  13.94927  13.96155  14.00536  14.03178
 Alpha virt. eigenvalues --   14.03486  14.05865  14.07206  14.10639  14.11872
 Alpha virt. eigenvalues --   14.15217  14.17947  14.20212  14.24028  14.28231
 Alpha virt. eigenvalues --   14.31750  14.35212  14.37933  14.39676  14.41963
 Alpha virt. eigenvalues --   14.45434  14.46997  14.49448  14.51499  14.52436
 Alpha virt. eigenvalues --   14.54381  14.58587  14.60652  14.61350  14.61882
 Alpha virt. eigenvalues --   14.68064  14.69889  14.71366  14.75444  14.77036
 Alpha virt. eigenvalues --   14.79146  14.83548  14.83745  14.86917  14.89596
 Alpha virt. eigenvalues --   14.90383  14.93793  14.96467  14.98528  15.01507
 Alpha virt. eigenvalues --   15.04863  15.07956  15.10926  15.13068  15.17400
 Alpha virt. eigenvalues --   15.20556  15.22856  15.25546  15.28444  15.32868
 Alpha virt. eigenvalues --   15.34059  15.35385  15.39525  15.43757  15.45783
 Alpha virt. eigenvalues --   15.51141  15.57367  15.60058  15.63632  15.67774
 Alpha virt. eigenvalues --   15.72049  15.77877  15.79107  15.84314  15.88354
 Alpha virt. eigenvalues --   15.92363  15.97625  16.00450  16.02201  16.02439
 Alpha virt. eigenvalues --   16.09273  16.14835  16.17955  16.21022  16.22705
 Alpha virt. eigenvalues --   16.28641  16.30236  16.34242  16.37730  16.41637
 Alpha virt. eigenvalues --   16.42609  16.45302  16.49401  16.51929  16.53812
 Alpha virt. eigenvalues --   16.57940  16.61112  16.68361  16.76823  16.79484
 Alpha virt. eigenvalues --   16.82764  16.84704  16.87906  16.88682  16.91247
 Alpha virt. eigenvalues --   16.93766  16.99109  17.06185  17.10821  17.15060
 Alpha virt. eigenvalues --   17.15454  17.18866  17.20564  17.23650  17.24034
 Alpha virt. eigenvalues --   17.25311  17.27626  17.29729  17.37267  17.38461
 Alpha virt. eigenvalues --   17.41250  17.42652  17.46662  17.47335  17.50209
 Alpha virt. eigenvalues --   17.59822  17.61736  17.65561  17.70736  17.77001
 Alpha virt. eigenvalues --   17.90461  17.92451  17.94028  18.09713  18.22873
 Alpha virt. eigenvalues --   18.29090  18.32375  18.37064  18.41835  18.44858
 Alpha virt. eigenvalues --   18.49263  18.51611  18.53476  18.57404  18.59642
 Alpha virt. eigenvalues --   18.72729  18.85451  18.89987  18.94133  19.00787
 Alpha virt. eigenvalues --   19.04411  19.07854  19.13301  19.18046  19.27793
 Alpha virt. eigenvalues --   19.35892  19.40005  19.42699  19.47055  19.50774
 Alpha virt. eigenvalues --   19.53273  19.54482  19.65411  19.69266  19.71847
 Alpha virt. eigenvalues --   19.75469  19.77356  19.84760  19.85635  19.89310
 Alpha virt. eigenvalues --   19.93084  19.94648  19.97722  19.99783  20.05995
 Alpha virt. eigenvalues --   20.12285  20.20083  20.25253  20.31891  20.38136
 Alpha virt. eigenvalues --   20.39535  20.45312  20.49667  20.68044  20.72713
 Alpha virt. eigenvalues --   20.75462  20.87632  20.90768  21.10303  21.29652
 Alpha virt. eigenvalues --   21.38424  21.61977  21.65172  21.68908  21.76318
 Alpha virt. eigenvalues --   21.89336  22.03625  22.29821  22.37642  22.82474
 Alpha virt. eigenvalues --   22.98877  23.22556  23.36632  23.46534  23.60789
 Alpha virt. eigenvalues --   23.74967  23.82351  23.86955  24.04275  24.17324
 Alpha virt. eigenvalues --   24.30413  24.55016  24.60615  24.84399  25.09242
 Alpha virt. eigenvalues --   26.73624  26.89346  42.12651  44.18037  55.23842
 Alpha virt. eigenvalues --   66.97094  67.24715
          Condensed to atoms (all electrons):
               1          2          3          4          5          6
     1  C    3.965090   0.383672   0.577767  -0.025120   0.453847  -0.035049
     2  O    0.383672   8.133629  -0.062986   0.249879  -0.059513   0.000648
     3  O    0.577767  -0.062986   8.148400   0.002208  -0.072584  -0.016593
     4  H   -0.025120   0.249879   0.002208   0.283620  -0.016210   0.001056
     5  C    0.453847  -0.059513  -0.072584  -0.016210   4.785753   0.402355
     6  N   -0.035049   0.000648  -0.016593   0.001056   0.402355   7.064662
     7  H   -0.014842  -0.001625  -0.000523   0.000794   0.398100  -0.051024
     8  H   -0.024632  -0.009077   0.002273   0.001324   0.415108  -0.059783
     9  H    0.005277  -0.000282  -0.005613   0.000295  -0.002944   0.307675
    10  H   -0.015570   0.000742   0.020740  -0.000107  -0.013238   0.308895
               7          8          9         10
     1  C   -0.014842  -0.024632   0.005277  -0.015570
     2  O   -0.001625  -0.009077  -0.000282   0.000742
     3  O   -0.000523   0.002273  -0.005613   0.020740
     4  H    0.000794   0.001324   0.000295  -0.000107
     5  C    0.398100   0.415108  -0.002944  -0.013238
     6  N   -0.051024  -0.059783   0.307675   0.308895
     7  H    0.486287  -0.025895  -0.012467  -0.000949
     8  H   -0.025895   0.488018   0.001525   0.006377
     9  H   -0.012467   0.001525   0.305499   0.002231
    10  H   -0.000949   0.006377   0.002231   0.306710
 Mulliken charges:
               1
     1  C    0.729559
     2  O   -0.635088
     3  O   -0.593089
     4  H    0.502260
     5  C   -0.290674
     6  N   -0.922843
     7  H    0.222142
     8  H    0.204762
     9  H    0.398803
    10  H    0.384169
 Sum of Mulliken charges =  -0.00000
 Mulliken charges with hydrogens summed into heavy atoms:
               1
     1  C    0.729559
     2  O   -0.132828
     3  O   -0.593089
     5  C    0.136230
     6  N   -0.139871
 Electronic spatial extent (au):  <R**2>=            414.7050
 Charge=             -0.0000 electrons
 Dipole moment (field-independent basis, Debye):
    X=             -1.2860    Y=             -4.1578    Z=              1.2836  Tot=              4.5375
 Quadrupole moment (field-independent basis, Debye-Ang):
   XX=            -31.2898   YY=            -28.6194   ZZ=            -30.2698
   XY=             -3.5570   XZ=             -3.5584   YZ=              0.0306
 Traceless Quadrupole moment (field-independent basis, Debye-Ang):
   XX=             -1.2302   YY=              1.4403   ZZ=             -0.2101
   XY=             -3.5570   XZ=             -3.5584   YZ=              0.0306
 Octapole moment (field-independent basis, Debye-Ang**2):
  XXX=             -6.8423  YYY=            -10.3820  ZZZ=              1.7886  XYY=              2.1817
  XXY=             -3.9453  XXZ=              8.4048  XZZ=              3.6980  YZZ=             -0.6429
  YYZ=             -0.5434  XYZ=              0.6218
 Hexadecapole moment (field-independent basis, Debye-Ang**3):
 XXXX=           -313.8189 YYYY=           -135.7899 ZZZZ=            -37.0346 XXXY=             -6.3771
 XXXZ=            -22.7693 YYYX=            -18.9918 YYYZ=              1.6649 ZZZX=             -4.3683
 ZZZY=             -0.1077 XXYY=            -64.7745 XXZZ=            -66.0087 YYZZ=            -28.6492
 XXYZ=             -0.5529 YYXZ=             -1.6632 ZZXY=              0.4116
 N-N= 1.805379066241D+02 E-N=-1.027408494438D+03  KE= 2.826746768491D+02
 No NMR shielding tensors so no spin-rotation constants.
 Leave Link  601 at Wed Jan 27 09:08:23 2021, MaxMem= 13421772800 cpu:              21.7 elap:               1.7
 (Enter /data2/software/Gaussian/g16_c01-gpu/g16/l9999.exe)
 Unable to Open any file for archive entry.
 1\1\GINC-CU02\SP\RHF\Aug-CC-pV5Z\C2H5N1O2\SHUCHONG\27-Jan-2021\0\\#P H
 F aug-cc-pV5Z\\VIII_SP\\0,1\C\O,1,1.350639199\O,1,1.196528699,2,120.39
 32146\H,2,0.961654864,1,110.5740242,3,-178.19299,0\C,1,1.514064823,3,1
 24.0964059,2,178.4170875,0\N,5,1.446363011,1,110.3514816,3,14.5342408,
 0\H,5,1.096841522,1,106.104928,3,-109.3302257,0\H,5,1.093775389,1,108.
 591649,3,135.7513316,0\H,6,1.008066405,5,112.0878145,1,-144.9571968,0\
 H,6,1.012597049,5,109.6684359,1,-23.85712294,0\\Version=AM64L-G16RevC.
 01\State=1-A\HF=-282.9634191\RMSD=9.944e-09\Dipole=-1.6784913,0.516665
 3,0.3203426\Quadrupole=-1.6117519,-0.3530942,1.9648461,-1.3468071,-2.2
 027782,-2.2448307\PG=C01 [X(C2H5N1O2)]\\@
 The archive entry for this job was punched.


 SOME THINGS ARE EASY, THEY ARE ONLY HARD TO DO.
            -- A. EINSTEIN TO J. O. HIRSCHFELDER
 THE ONLY TROUBLE WITH A SURE THING IS THE UNCERTAINTY.
     -- FROM A TEABAG (BELONGING TO W.H.?)
 Job cpu time:       1 days  3 hours 35 minutes 52.3 seconds.
 Elapsed time:       0 days  1 hours 43 minutes 27.9 seconds.
 File lengths (MBytes):  RWF=    550 Int=      0 D2E=      0 Chk=     63 Scr=      1
 Normal termination of Gaussian 16 at Wed Jan 27 09:08:23 2021.
