 Entering Gaussian System, Link 0=g16
 Input=ccc_Best_geom_CCSDT_cc-pwCVTZ-ae.gjf
 Output=ccc_Best_geom_CCSDT_cc-pwCVTZ-ae.log
 AtFile(1): /home/hexuye/glycine/cc-pwcvtz.0.gbs
            H     0
            S    5   1.00
                  3.387000D+01           6.068000D-03
                  5.095000D+00           4.530800D-02
                  1.159000D+00           2.028220D-01
                  3.258000D-01           5.039030D-01
                  1.027000D-01           3.834210D-01
            S    1   1.00
                  3.258000D-01           1.000000D+00
            S    1   1.00
                  1.027000D-01           1.000000D+00
            P    1   1.00
                  1.407000D+00           1.000000D+00
            P    1   1.00
                  3.880000D-01           1.000000D+00
            D    1   1.00
                  1.057000D+00           1.0000000
            ****
            C     0
            S    10   1.00
               8236.0000000              0.0005310
               1235.0000000              0.0041080
                280.8000000              0.0210870
                 79.2700000              0.0818530
                 25.5900000              0.2348170
                  8.9970000              0.4344010
                  3.3190000              0.3461290
                  0.9059000              0.0393780
                  0.3643000             -0.0089830
                  0.1285000              0.0023850
            S    10   1.00
               8236.0000000             -0.0001130
               1235.0000000             -0.0008780
                280.8000000             -0.0045400
                 79.2700000             -0.0181330
                 25.5900000             -0.0557600
                  8.9970000             -0.1268950
                  3.3190000             -0.1703520
                  0.9059000              0.1403820
                  0.3643000              0.5986840
                  0.1285000              0.3953890
            S    1   1.00
                  8.828000               1.000000
            S    1   1.00
                  3.474000               1.000000
            S    1   1.00
                  0.9059000              1.0000000
            S    1   1.00
                  0.1285000              1.0000000
            P    5   1.00
                 18.7100000              0.0140310
                  4.1330000              0.0868660
                  1.2000000              0.2902160
                  0.3827000              0.5010080
                  0.1209000              0.3434060
            P    1   1.00
                 21.55200                1.000000
            P    1   1.00
                  5.442000               1.000000
            P    1   1.00
                  0.3827000              1.0000000
            P    1   1.00
                  0.1209000              1.0000000
            D    1   1.00
                  4.950000               1.000000
            D    1   1.00
                  1.0970000              1.0000000
            D    1   1.00
                  0.3180000              1.0000000
            F    1   1.00
                  0.7610000              1.0000000
            ****
            N     0
            S    10   1.00
              11420.0000000              0.0005230
               1712.0000000              0.0040450
                389.3000000              0.0207750
                110.0000000              0.0807270
                 35.5700000              0.2330740
                 12.5400000              0.4335010
                  4.6440000              0.3474720
                  1.2930000              0.0412620
                  0.5118000             -0.0085080
                  0.1787000              0.0023840
            S    10   1.00
              11420.0000000             -0.0001150
               1712.0000000             -0.0008950
                389.3000000             -0.0046240
                110.0000000             -0.0185280
                 35.5700000             -0.0573390
                 12.5400000             -0.1320760
                  4.6440000             -0.1725100
                  1.2930000              0.1518140
                  0.5118000              0.5999440
                  0.1787000              0.3874620
            S    1   1.00
                 11.80700                1.000000
            S    1   1.00
                  4.733000               1.000000
            S    1   1.00
                  1.2930000              1.0000000
            S    1   1.00
                  0.1787000              1.0000000
            P    5   1.00
                 26.6300000              0.0146700
                  5.9480000              0.0917640
                  1.7420000              0.2986830
                  0.5550000              0.4984870
                  0.1725000              0.3370230
            P    1   1.00
                 29.81800                1.000000
            P    1   1.00
                  7.743000               1.000000
            P    1   1.00
                  0.5550000              1.0000000
            P    1   1.00
                  0.1725000              1.0000000
            D    1   1.00
                  7.352000               1.000000
            D    1   1.00
                  1.6540000              1.0000000
            D    1   1.00
                  0.4690000              1.0000000
            F    1   1.00
                  1.0930000              1.0000000
            ****
            O     0
            S    10   1.00
              15330.0000000              0.0005080
               2299.0000000              0.0039290
                522.4000000              0.0202430
                147.3000000              0.0791810
                 47.5500000              0.2306870
                 16.7600000              0.4331180
                  6.2070000              0.3502600
                  1.7520000              0.0427280
                  0.6882000             -0.0081540
                  0.2384000              0.0023810
            S    10   1.00
              15330.0000000             -0.0001150
               2299.0000000             -0.0008950
                522.4000000             -0.0046360
                147.3000000             -0.0187240
                 47.5500000             -0.0584630
                 16.7600000             -0.1364630
                  6.2070000             -0.1757400
                  1.7520000              0.1609340
                  0.6882000              0.6034180
                  0.2384000              0.3787650
            S    1   1.00
                 15.38100                1.000000
            S    1   1.00
                  6.245000               1.000000
            S    1   1.00
                  1.7520000              1.0000000
            S    1   1.00
                  0.2384000              1.0000000
            P    5   1.00
                 34.4600000              0.0159280
                  7.7490000              0.0997400
                  2.2800000              0.3104920
                  0.7156000              0.4910260
                  0.2140000              0.3363370
            P    1   1.00
                 38.48400                1.000000
            P    1   1.00
                 10.21600                1.000000
            P    1   1.00
                  0.7156000              1.0000000
            P    1   1.00
                  0.2140000              1.0000000
            D    1   1.00
                 10.23800                1.000000
            D    1   1.00
                  2.3140000              1.0000000
            D    1   1.00
                  0.6450000              1.0000000
            F    1   1.00
                  1.4280000              1.0000000
            ****
 Initial command:
 /home/hexuye/G16_1123/data2/software/Gaussian/g16_from_xuruiqin/g16/l1.exe "/home/hexuye/scratch/Gau-276433.inp" -scrdir="/home/hexuye/scratch/"
 Entering Link 1 = /home/hexuye/G16_1123/data2/software/Gaussian/g16_from_xuruiqin/g16/l1.exe PID=    276434.
  
 Copyright (c) 1988-2019, Gaussian, Inc.  All Rights Reserved.
  
 This is part of the Gaussian(R) 16 program.  It is based on
 the Gaussian(R) 09 system (copyright 2009, Gaussian, Inc.),
 the Gaussian(R) 03 system (copyright 2003, Gaussian, Inc.),
 the Gaussian(R) 98 system (copyright 1998, Gaussian, Inc.),
 the Gaussian(R) 94 system (copyright 1995, Gaussian, Inc.),
 the Gaussian 92(TM) system (copyright 1992, Gaussian, Inc.),
 the Gaussian 90(TM) system (copyright 1990, Gaussian, Inc.),
 the Gaussian 88(TM) system (copyright 1988, Gaussian, Inc.),
 the Gaussian 86(TM) system (copyright 1986, Carnegie Mellon
 University), and the Gaussian 82(TM) system (copyright 1983,
 Carnegie Mellon University). Gaussian is a federally registered
 trademark of Gaussian, Inc.
  
 This software contains proprietary and confidential information,
 including trade secrets, belonging to Gaussian, Inc.
  
 This software is provided under written license and may be
 used, copied, transmitted, or stored only in accord with that
 written license.
  
 The following legend is applicable only to US Government
 contracts under FAR:
  
                    RESTRICTED RIGHTS LEGEND
  
 Use, reproduction and disclosure by the US Government is
 subject to restrictions as set forth in subparagraphs (a)
 and (c) of the Commercial Computer Software - Restricted
 Rights clause in FAR 52.227-19.
  
 Gaussian, Inc.
 340 Quinnipiac St., Bldg. 40, Wallingford CT 06492
  
  
 ---------------------------------------------------------------
 Warning -- This program may not be used in any manner that
 competes with the business of Gaussian, Inc. or will provide
 assistance to any competitor of Gaussian, Inc.  The licensee
 of this program is prohibited from giving any competitor of
 Gaussian, Inc. access to this program.  By using this program,
 the user acknowledges that Gaussian, Inc. is engaged in the
 business of creating and licensing software in the field of
 computational chemistry and represents and warrants to the
 licensee that it is not a competitor of Gaussian, Inc. and that
 it will not use this program in any manner prohibited above.
 ---------------------------------------------------------------
  

 Cite this work as:
 Gaussian 16, Revision C.01,
 M. J. Frisch, G. W. Trucks, H. B. Schlegel, G. E. Scuseria, 
 M. A. Robb, J. R. Cheeseman, G. Scalmani, V. Barone, 
 G. A. Petersson, H. Nakatsuji, X. Li, M. Caricato, A. V. Marenich, 
 J. Bloino, B. G. Janesko, R. Gomperts, B. Mennucci, H. P. Hratchian, 
 J. V. Ortiz, A. F. Izmaylov, J. L. Sonnenberg, D. Williams-Young, 
 F. Ding, F. Lipparini, F. Egidi, J. Goings, B. Peng, A. Petrone, 
 T. Henderson, D. Ranasinghe, V. G. Zakrzewski, J. Gao, N. Rega, 
 G. Zheng, W. Liang, M. Hada, M. Ehara, K. Toyota, R. Fukuda, 
 J. Hasegawa, M. Ishida, T. Nakajima, Y. Honda, O. Kitao, H. Nakai, 
 T. Vreven, K. Throssell, J. A. Montgomery, Jr., J. E. Peralta, 
 F. Ogliaro, M. J. Bearpark, J. J. Heyd, E. N. Brothers, K. N. Kudin, 
 V. N. Staroverov, T. A. Keith, R. Kobayashi, J. Normand, 
 K. Raghavachari, A. P. Rendell, J. C. Burant, S. S. Iyengar, 
 J. Tomasi, M. Cossi, J. M. Millam, M. Klene, C. Adamo, R. Cammi, 
 J. W. Ochterski, R. L. Martin, K. Morokuma, O. Farkas, 
 J. B. Foresman, and D. J. Fox, Gaussian, Inc., Wallingford CT, 2019.
 
 ******************************************
 Gaussian 16:  ES64L-G16RevC.01  3-Jul-2019
                15-Apr-2021 
 ******************************************
 %chk=ccc_Best_geom_CCSDT_cc-pwCVTZ-ae.chk
 %nprocshared=64
 Will use up to   64 processors via shared memory.
 %mem=100GB
 -------------------
 #p CCSD(T)=FULL/gen
 -------------------
 1/38=1,172=1/1;
 2/12=2,17=6,18=5,40=1/2;
 3/5=7,11=9,25=1,30=1/1,2,3;
 4//1;
 5/5=2,38=5/2;
 8/6=4,9=120000,10=90/1,4;
 9/5=7,14=2/13;
 6/7=2,8=2,9=2,10=2/1;
 99/5=1,9=1/99;
 Leave Link    1 at Thu Apr 15 21:37:48 2021, MaxMem= 13421772800 cpu:               4.3 elap:               0.1
 (Enter /home/hexuye/G16_1123/data2/software/Gaussian/g16_from_xuruiqin/g16/l101.exe)
 --------------------------
 start best geom PCCP paper
 --------------------------
 Symbolic Z-matrix:
 Charge =  0 Multiplicity = 1
 N
 H                    1    B1
 C                    1    B2       2    A1
 C                    3    B3       1    A2       2    D1       0
 H                    3    B4       1    A3       4    D2       0
 H                    3    B5       1    A4       4    D3       0
 O                    4    B6       3    A5       1    D4       0
 O                    4    B7       3    A6       1    D5       0
 H                    1    B8       3    A7       4    D6       0
 H                    8    B9       4    A8       3    D7       0
       Variables:
  B1                    1.0091                   
  B2                    1.4609                   
  B3                    1.5252                   
  B4                    1.0891                   
  B5                    1.089                    
  B6                    1.2001                   
  B7                    1.3356                   
  B8                    1.008                    
  B9                    0.976                    
  A1                  112.0646                   
  A2                  111.6045                   
  A3                  110.2343                   
  A4                  113.9016                   
  A5                  122.6125                   
  A6                  114.3853                   
  A7                  112.2608                   
  A8                  105.7699                   
  D1                  101.3936                   
  D2                  117.8521                   
  D3                 -121.6454                   
  D4                 -171.93                     
  D5                    8.8971                   
  D6                 -136.9715                   
  D7                   -1.3866                   
 
 ITRead=  0  0  0  0  0  0  0  0  0  0
 MicOpt= -1 -1 -1 -1 -1 -1 -1 -1 -1 -1
 NAtoms=     10 NQM=       10 NQMF=       0 NMMI=      0 NMMIF=      0
                NMic=       0 NMicF=      0.
                    Isotopes and Nuclear Properties:
 (Nuclear quadrupole moments (NQMom) in fm**2, nuclear magnetic moments (NMagM)
  in nuclear magnetons)

  Atom         1           2           3           4           5           6           7           8           9          10
 IAtWgt=          14           1          12          12           1           1          16          16           1           1
 AtmWgt=  14.0030740   1.0078250  12.0000000  12.0000000   1.0078250   1.0078250  15.9949146  15.9949146   1.0078250   1.0078250
 NucSpn=           2           1           0           0           1           1           0           0           1           1
 AtZEff=  -0.0000000  -0.0000000  -0.0000000  -0.0000000  -0.0000000  -0.0000000  -0.0000000  -0.0000000  -0.0000000  -0.0000000
 NQMom=    2.0440000   0.0000000   0.0000000   0.0000000   0.0000000   0.0000000   0.0000000   0.0000000   0.0000000   0.0000000
 NMagM=    0.4037610   2.7928460   0.0000000   0.0000000   2.7928460   2.7928460   0.0000000   0.0000000   2.7928460   2.7928460
 AtZNuc=   7.0000000   1.0000000   6.0000000   6.0000000   1.0000000   1.0000000   8.0000000   8.0000000   1.0000000   1.0000000
 Leave Link  101 at Thu Apr 15 21:37:48 2021, MaxMem= 13421772800 cpu:              11.6 elap:               0.3
 (Enter /home/hexuye/G16_1123/data2/software/Gaussian/g16_from_xuruiqin/g16/l202.exe)
                          Input orientation:                          
 ---------------------------------------------------------------------
 Center     Atomic      Atomic             Coordinates (Angstroms)
 Number     Number       Type             X           Y           Z
 ---------------------------------------------------------------------
      1          7           0        0.000000    0.000000    0.000000
      2          1           0        0.000000    0.000000    1.009100
      3          6           0        1.353905    0.000000   -0.548790
      4          6           0        1.769118   -1.390106   -1.019362
      5          1           0        1.405706    0.646494   -1.423719
      6          1           0        2.113699    0.344627    0.151115
      7          8           0        2.887214   -1.646392   -1.372093
      8          8           0        0.781571   -2.289312   -1.021685
      9          1           0       -0.537692    0.794255   -0.310017
     10          1           0       -0.004808   -1.820532   -0.683410
 ---------------------------------------------------------------------
                    Distance matrix (angstroms):
                    1          2          3          4          5
     1  N    0.000000
     2  H    1.009100   0.000000
     3  C    1.460900   2.063996   0.000000
     4  C    2.470076   3.029329   1.525200   0.000000
     5  H    2.102603   2.883153   1.089100   2.107916   0.000000
     6  H    2.146934   2.307082   1.089000   2.120861   1.752848
     7  O    3.595727   4.088605   2.395719   1.200100   2.730358
     8  O    2.625955   3.158463   2.406688   1.335600   3.028223
     9  H    1.008000   1.630957   2.065428   3.255146   2.244763
    10  H    1.944584   2.485749   2.275645   1.856056   2.936635
                    6          7          8          9         10
     6  H    0.000000
     7  O    2.623480   0.000000
     8  O    3.176107   2.229320   0.000000
     9  H    2.728494   4.337597   3.428602   0.000000
    10  H    3.142040   2.977986   0.976000   2.694531   0.000000
 Stoichiometry    C2H5NO2
 Framework group  C1[X(C2H5NO2)]
 Deg. of freedom    24
 Full point group                 C1      NOp   1
 Largest Abelian subgroup         C1      NOp   1
 Largest concise Abelian subgroup C1      NOp   1
                         Standard orientation:                         
 ---------------------------------------------------------------------
 Center     Atomic      Atomic             Coordinates (Angstroms)
 Number     Number       Type             X           Y           Z
 ---------------------------------------------------------------------
      1          7           0       -1.777783    0.124928   -0.048772
      2          1           0       -2.176227    0.113925   -0.975812
      3          6           0       -0.642823   -0.786994    0.071611
      4          6           0        0.686110   -0.041625    0.003814
      5          1           0       -0.662886   -1.287754    1.038553
      6          1           0       -0.617441   -1.563047   -0.691946
      7          8           0        1.742553   -0.607441   -0.059578
      8          8           0        0.574514    1.288852    0.038515
      9          1           0       -2.512293   -0.090938    0.606942
     10          1           0       -0.382931    1.473747    0.079614
 ---------------------------------------------------------------------
 Rotational constants (GHZ):          10.2054237           4.0954771           3.0305609
 Leave Link  202 at Thu Apr 15 21:37:48 2021, MaxMem= 13421772800 cpu:               3.6 elap:               0.1
 (Enter /home/hexuye/G16_1123/data2/software/Gaussian/g16_from_xuruiqin/g16/l301.exe)
 General basis read from cards:  (5D, 7F)
 Centers:       2      5      6      9     10
 S 5 1.00
     Exponent=  3.3870000000D+01 Coefficients=  6.0680000000D-03
     Exponent=  5.0950000000D+00 Coefficients=  4.5308000000D-02
     Exponent=  1.1590000000D+00 Coefficients=  2.0282200000D-01
     Exponent=  3.2580000000D-01 Coefficients=  5.0390300000D-01
     Exponent=  1.0270000000D-01 Coefficients=  3.8342100000D-01
 S 1 1.00
     Exponent=  3.2580000000D-01 Coefficients=  1.0000000000D+00
 S 1 1.00
     Exponent=  1.0270000000D-01 Coefficients=  1.0000000000D+00
 P 1 1.00
     Exponent=  1.4070000000D+00 Coefficients=  1.0000000000D+00
 P 1 1.00
     Exponent=  3.8800000000D-01 Coefficients=  1.0000000000D+00
 D 1 1.00
     Exponent=  1.0570000000D+00 Coefficients=  1.0000000000D+00
 ****
 Centers:       3      4
 S 10 1.00
     Exponent=  8.2360000000D+03 Coefficients=  5.3100000000D-04
     Exponent=  1.2350000000D+03 Coefficients=  4.1080000000D-03
     Exponent=  2.8080000000D+02 Coefficients=  2.1087000000D-02
     Exponent=  7.9270000000D+01 Coefficients=  8.1853000000D-02
     Exponent=  2.5590000000D+01 Coefficients=  2.3481700000D-01
     Exponent=  8.9970000000D+00 Coefficients=  4.3440100000D-01
     Exponent=  3.3190000000D+00 Coefficients=  3.4612900000D-01
     Exponent=  9.0590000000D-01 Coefficients=  3.9378000000D-02
     Exponent=  3.6430000000D-01 Coefficients= -8.9830000000D-03
     Exponent=  1.2850000000D-01 Coefficients=  2.3850000000D-03
 S 10 1.00
     Exponent=  8.2360000000D+03 Coefficients= -1.1300000000D-04
     Exponent=  1.2350000000D+03 Coefficients= -8.7800000000D-04
     Exponent=  2.8080000000D+02 Coefficients= -4.5400000000D-03
     Exponent=  7.9270000000D+01 Coefficients= -1.8133000000D-02
     Exponent=  2.5590000000D+01 Coefficients= -5.5760000000D-02
     Exponent=  8.9970000000D+00 Coefficients= -1.2689500000D-01
     Exponent=  3.3190000000D+00 Coefficients= -1.7035200000D-01
     Exponent=  9.0590000000D-01 Coefficients=  1.4038200000D-01
     Exponent=  3.6430000000D-01 Coefficients=  5.9868400000D-01
     Exponent=  1.2850000000D-01 Coefficients=  3.9538900000D-01
 S 1 1.00
     Exponent=  8.8280000000D+00 Coefficients=  1.0000000000D+00
 S 1 1.00
     Exponent=  3.4740000000D+00 Coefficients=  1.0000000000D+00
 S 1 1.00
     Exponent=  9.0590000000D-01 Coefficients=  1.0000000000D+00
 S 1 1.00
     Exponent=  1.2850000000D-01 Coefficients=  1.0000000000D+00
 P 5 1.00
     Exponent=  1.8710000000D+01 Coefficients=  1.4031000000D-02
     Exponent=  4.1330000000D+00 Coefficients=  8.6866000000D-02
     Exponent=  1.2000000000D+00 Coefficients=  2.9021600000D-01
     Exponent=  3.8270000000D-01 Coefficients=  5.0100800000D-01
     Exponent=  1.2090000000D-01 Coefficients=  3.4340600000D-01
 P 1 1.00
     Exponent=  2.1552000000D+01 Coefficients=  1.0000000000D+00
 P 1 1.00
     Exponent=  5.4420000000D+00 Coefficients=  1.0000000000D+00
 P 1 1.00
     Exponent=  3.8270000000D-01 Coefficients=  1.0000000000D+00
 P 1 1.00
     Exponent=  1.2090000000D-01 Coefficients=  1.0000000000D+00
 D 1 1.00
     Exponent=  4.9500000000D+00 Coefficients=  1.0000000000D+00
 D 1 1.00
     Exponent=  1.0970000000D+00 Coefficients=  1.0000000000D+00
 D 1 1.00
     Exponent=  3.1800000000D-01 Coefficients=  1.0000000000D+00
 F 1 1.00
     Exponent=  7.6100000000D-01 Coefficients=  1.0000000000D+00
 ****
 Centers:       1
 S 10 1.00
     Exponent=  1.1420000000D+04 Coefficients=  5.2300000000D-04
     Exponent=  1.7120000000D+03 Coefficients=  4.0450000000D-03
     Exponent=  3.8930000000D+02 Coefficients=  2.0775000000D-02
     Exponent=  1.1000000000D+02 Coefficients=  8.0727000000D-02
     Exponent=  3.5570000000D+01 Coefficients=  2.3307400000D-01
     Exponent=  1.2540000000D+01 Coefficients=  4.3350100000D-01
     Exponent=  4.6440000000D+00 Coefficients=  3.4747200000D-01
     Exponent=  1.2930000000D+00 Coefficients=  4.1262000000D-02
     Exponent=  5.1180000000D-01 Coefficients= -8.5080000000D-03
     Exponent=  1.7870000000D-01 Coefficients=  2.3840000000D-03
 S 10 1.00
     Exponent=  1.1420000000D+04 Coefficients= -1.1500000000D-04
     Exponent=  1.7120000000D+03 Coefficients= -8.9500000000D-04
     Exponent=  3.8930000000D+02 Coefficients= -4.6240000000D-03
     Exponent=  1.1000000000D+02 Coefficients= -1.8528000000D-02
     Exponent=  3.5570000000D+01 Coefficients= -5.7339000000D-02
     Exponent=  1.2540000000D+01 Coefficients= -1.3207600000D-01
     Exponent=  4.6440000000D+00 Coefficients= -1.7251000000D-01
     Exponent=  1.2930000000D+00 Coefficients=  1.5181400000D-01
     Exponent=  5.1180000000D-01 Coefficients=  5.9994400000D-01
     Exponent=  1.7870000000D-01 Coefficients=  3.8746200000D-01
 S 1 1.00
     Exponent=  1.1807000000D+01 Coefficients=  1.0000000000D+00
 S 1 1.00
     Exponent=  4.7330000000D+00 Coefficients=  1.0000000000D+00
 S 1 1.00
     Exponent=  1.2930000000D+00 Coefficients=  1.0000000000D+00
 S 1 1.00
     Exponent=  1.7870000000D-01 Coefficients=  1.0000000000D+00
 P 5 1.00
     Exponent=  2.6630000000D+01 Coefficients=  1.4670000000D-02
     Exponent=  5.9480000000D+00 Coefficients=  9.1764000000D-02
     Exponent=  1.7420000000D+00 Coefficients=  2.9868300000D-01
     Exponent=  5.5500000000D-01 Coefficients=  4.9848700000D-01
     Exponent=  1.7250000000D-01 Coefficients=  3.3702300000D-01
 P 1 1.00
     Exponent=  2.9818000000D+01 Coefficients=  1.0000000000D+00
 P 1 1.00
     Exponent=  7.7430000000D+00 Coefficients=  1.0000000000D+00
 P 1 1.00
     Exponent=  5.5500000000D-01 Coefficients=  1.0000000000D+00
 P 1 1.00
     Exponent=  1.7250000000D-01 Coefficients=  1.0000000000D+00
 D 1 1.00
     Exponent=  7.3520000000D+00 Coefficients=  1.0000000000D+00
 D 1 1.00
     Exponent=  1.6540000000D+00 Coefficients=  1.0000000000D+00
 D 1 1.00
     Exponent=  4.6900000000D-01 Coefficients=  1.0000000000D+00
 F 1 1.00
     Exponent=  1.0930000000D+00 Coefficients=  1.0000000000D+00
 ****
 Centers:       7      8
 S 10 1.00
     Exponent=  1.5330000000D+04 Coefficients=  5.0800000000D-04
     Exponent=  2.2990000000D+03 Coefficients=  3.9290000000D-03
     Exponent=  5.2240000000D+02 Coefficients=  2.0243000000D-02
     Exponent=  1.4730000000D+02 Coefficients=  7.9181000000D-02
     Exponent=  4.7550000000D+01 Coefficients=  2.3068700000D-01
     Exponent=  1.6760000000D+01 Coefficients=  4.3311800000D-01
     Exponent=  6.2070000000D+00 Coefficients=  3.5026000000D-01
     Exponent=  1.7520000000D+00 Coefficients=  4.2728000000D-02
     Exponent=  6.8820000000D-01 Coefficients= -8.1540000000D-03
     Exponent=  2.3840000000D-01 Coefficients=  2.3810000000D-03
 S 10 1.00
     Exponent=  1.5330000000D+04 Coefficients= -1.1500000000D-04
     Exponent=  2.2990000000D+03 Coefficients= -8.9500000000D-04
     Exponent=  5.2240000000D+02 Coefficients= -4.6360000000D-03
     Exponent=  1.4730000000D+02 Coefficients= -1.8724000000D-02
     Exponent=  4.7550000000D+01 Coefficients= -5.8463000000D-02
     Exponent=  1.6760000000D+01 Coefficients= -1.3646300000D-01
     Exponent=  6.2070000000D+00 Coefficients= -1.7574000000D-01
     Exponent=  1.7520000000D+00 Coefficients=  1.6093400000D-01
     Exponent=  6.8820000000D-01 Coefficients=  6.0341800000D-01
     Exponent=  2.3840000000D-01 Coefficients=  3.7876500000D-01
 S 1 1.00
     Exponent=  1.5381000000D+01 Coefficients=  1.0000000000D+00
 S 1 1.00
     Exponent=  6.2450000000D+00 Coefficients=  1.0000000000D+00
 S 1 1.00
     Exponent=  1.7520000000D+00 Coefficients=  1.0000000000D+00
 S 1 1.00
     Exponent=  2.3840000000D-01 Coefficients=  1.0000000000D+00
 P 5 1.00
     Exponent=  3.4460000000D+01 Coefficients=  1.5928000000D-02
     Exponent=  7.7490000000D+00 Coefficients=  9.9740000000D-02
     Exponent=  2.2800000000D+00 Coefficients=  3.1049200000D-01
     Exponent=  7.1560000000D-01 Coefficients=  4.9102600000D-01
     Exponent=  2.1400000000D-01 Coefficients=  3.3633700000D-01
 P 1 1.00
     Exponent=  3.8484000000D+01 Coefficients=  1.0000000000D+00
 P 1 1.00
     Exponent=  1.0216000000D+01 Coefficients=  1.0000000000D+00
 P 1 1.00
     Exponent=  7.1560000000D-01 Coefficients=  1.0000000000D+00
 P 1 1.00
     Exponent=  2.1400000000D-01 Coefficients=  1.0000000000D+00
 D 1 1.00
     Exponent=  1.0238000000D+01 Coefficients=  1.0000000000D+00
 D 1 1.00
     Exponent=  2.3140000000D+00 Coefficients=  1.0000000000D+00
 D 1 1.00
     Exponent=  6.4500000000D-01 Coefficients=  1.0000000000D+00
 F 1 1.00
     Exponent=  1.4280000000D+00 Coefficients=  1.0000000000D+00
 ****
 Ernie: Thresh=  0.10000D-02 Tol=  0.10000D-05 Strict=F.
 Ernie:  35 primitive shells out of 235 were deleted.
 There are   320 symmetry adapted cartesian basis functions of A   symmetry.
 There are   285 symmetry adapted basis functions of A   symmetry.
   285 basis functions,   455 primitive gaussians,   320 cartesian basis functions
    20 alpha electrons       20 beta electrons
       nuclear repulsion energy       181.0042859132 Hartrees.
 IExCor=    0 DFT=F Ex=HF Corr=None ExCW=0 ScaHFX=  1.000000
 ScaDFX=  1.000000  1.000000  1.000000  1.000000 ScalE2=  1.000000  1.000000
 IRadAn=      5 IRanWt=     -1 IRanGd=            0 ICorTp=0 IEmpDi=  4
 NAtoms=   10 NActive=   10 NUniq=   10 SFac= 1.00D+00 NAtFMM=   60 NAOKFM=F Big=F
 Integral buffers will be    131072 words long.
 Raffenetti 1 integral format.
 Two-electron integral symmetry is turned on.
 Leave Link  301 at Thu Apr 15 21:37:49 2021, MaxMem= 13421772800 cpu:              15.1 elap:               0.3
 (Enter /home/hexuye/G16_1123/data2/software/Gaussian/g16_from_xuruiqin/g16/l302.exe)
 NPDir=0 NMtPBC=     1 NCelOv=     1 NCel=       1 NClECP=     1 NCelD=      1
         NCelK=      1 NCelE2=     1 NClLst=     1 CellRange=     0.0.
 One-electron integrals computed using PRISM.
 One-electron integral symmetry used in STVInt
 NBasis=   285 RedAO= T EigKep=  4.52D-04  NBF=   285
 NBsUse=   285 1.00D-06 EigRej= -1.00D+00 NBFU=   285
 Leave Link  302 at Thu Apr 15 21:37:49 2021, MaxMem= 13421772800 cpu:              35.5 elap:               0.6
 (Enter /home/hexuye/G16_1123/data2/software/Gaussian/g16_from_xuruiqin/g16/l303.exe)
 DipDrv:  MaxL=1.
 Leave Link  303 at Thu Apr 15 21:37:50 2021, MaxMem= 13421772800 cpu:               2.4 elap:               0.1
 (Enter /home/hexuye/G16_1123/data2/software/Gaussian/g16_from_xuruiqin/g16/l401.exe)
 ExpMin= 1.03D-01 ExpMax= 1.53D+04 ExpMxC= 5.22D+02 IAcc=3 IRadAn=         5 AccDes= 0.00D+00
 Harris functional with IExCor=  205 and IRadAn=       5 diagonalized for initial guess.
 HarFok:  IExCor=  205 AccDes= 0.00D+00 IRadAn=         5 IDoV= 1 UseB2=F ITyADJ=14
 ICtDFT=  3500011 ScaDFX=  1.000000  1.000000  1.000000  1.000000
 FoFCou: FMM=F IPFlag=           0 FMFlag=      100000 FMFlg1=           0
         NFxFlg=           0 DoJE=T BraDBF=F KetDBF=T FulRan=T
         wScrn=  0.000000 ICntrl=       500 IOpCl=  0 I1Cent=   200000004 NGrid=           0
         NMat0=    1 NMatS0=      1 NMatT0=    0 NMatD0=    1 NMtDS0=    0 NMtDT0=    0
 Petite list used in FoFCou.
 Harris En= -283.235130824199    
 JPrj=0 DoOrth=F DoCkMO=F.
 Leave Link  401 at Thu Apr 15 21:37:50 2021, MaxMem= 13421772800 cpu:              48.0 elap:               0.8
 (Enter /home/hexuye/G16_1123/data2/software/Gaussian/g16_from_xuruiqin/g16/l502.exe)
 Keep R1 ints in memory in canonical form, NReq=863064672.
 FoFCou: FMM=F IPFlag=           0 FMFlag=           0 FMFlg1=           0
         NFxFlg=           0 DoJE=F BraDBF=F KetDBF=F FulRan=T
         wScrn=  0.000000 ICntrl=       600 IOpCl=  0 I1Cent=           0 NGrid=           0
         NMat0=    1 NMatS0=  40755 NMatT0=    0 NMatD0=    1 NMtDS0=    0 NMtDT0=    0
 Symmetry not used in FoFCou.
 Two-electron integral symmetry not used.
 Closed shell SCF:
 Using DIIS extrapolation, IDIIS=  1040.
 NGot= 13421772800 LenX= 12591039114 LenY= 12590936273
 Requested convergence on RMS density matrix=1.00D-08 within 128 cycles.
 Requested convergence on MAX density matrix=1.00D-06.
 Requested convergence on             energy=1.00D-06.
 No special actions if energy rises.

 Cycle   1  Pass 1  IDiag  1:
 E= -282.708770706200    
 DIIS: error= 5.82D-02 at cycle   1 NSaved=   1.
 NSaved= 1 IEnMin= 1 EnMin= -282.708770706200     IErMin= 1 ErrMin= 5.82D-02
 ErrMax= 5.82D-02  0.00D+00 EMaxC= 1.00D-01 BMatC= 6.69D-01 BMatP= 6.69D-01
 IDIUse=3 WtCom= 4.18D-01 WtEn= 5.82D-01
 Coeff-Com:  0.100D+01
 Coeff-En:   0.100D+01
 Coeff:      0.100D+01
 Gap=     0.579 Goal=   None    Shift=    0.000
 GapD=    0.579 DampG=2.000 DampE=0.500 DampFc=1.0000 IDamp=-1.
 RMSDP=4.08D-03 MaxDP=2.79D-01              OVMax= 1.26D-01

 Cycle   2  Pass 1  IDiag  1:
 E= -282.895883143601     Delta-E=       -0.187112437401 Rises=F Damp=F
 DIIS: error= 1.39D-02 at cycle   2 NSaved=   2.
 NSaved= 2 IEnMin= 2 EnMin= -282.895883143601     IErMin= 2 ErrMin= 1.39D-02
 ErrMax= 1.39D-02  0.00D+00 EMaxC= 1.00D-01 BMatC= 7.64D-02 BMatP= 6.69D-01
 IDIUse=3 WtCom= 8.61D-01 WtEn= 1.39D-01
 Coeff-Com:  0.172D+00 0.828D+00
 Coeff-En:   0.000D+00 0.100D+01
 Coeff:      0.148D+00 0.852D+00
 Gap=     0.573 Goal=   None    Shift=    0.000
 RMSDP=1.56D-03 MaxDP=1.28D-01 DE=-1.87D-01 OVMax= 5.26D-02

 Cycle   3  Pass 1  IDiag  1:
 E= -282.936935292930     Delta-E=       -0.041052149328 Rises=F Damp=F
 DIIS: error= 8.05D-03 at cycle   3 NSaved=   3.
 NSaved= 3 IEnMin= 3 EnMin= -282.936935292930     IErMin= 3 ErrMin= 8.05D-03
 ErrMax= 8.05D-03  0.00D+00 EMaxC= 1.00D-01 BMatC= 1.24D-02 BMatP= 7.64D-02
 IDIUse=3 WtCom= 9.20D-01 WtEn= 8.05D-02
 Coeff-Com: -0.244D-01 0.260D+00 0.765D+00
 Coeff-En:   0.000D+00 0.000D+00 0.100D+01
 Coeff:     -0.224D-01 0.239D+00 0.784D+00
 Gap=     0.535 Goal=   None    Shift=    0.000
 RMSDP=4.38D-04 MaxDP=5.43D-02 DE=-4.11D-02 OVMax= 2.71D-02

 Cycle   4  Pass 1  IDiag  1:
 E= -282.944394884361     Delta-E=       -0.007459591432 Rises=F Damp=F
 DIIS: error= 1.30D-03 at cycle   4 NSaved=   4.
 NSaved= 4 IEnMin= 4 EnMin= -282.944394884361     IErMin= 4 ErrMin= 1.30D-03
 ErrMax= 1.30D-03  0.00D+00 EMaxC= 1.00D-01 BMatC= 4.50D-04 BMatP= 1.24D-02
 IDIUse=3 WtCom= 9.87D-01 WtEn= 1.30D-02
 Coeff-Com: -0.105D-01 0.538D-01 0.247D+00 0.710D+00
 Coeff-En:   0.000D+00 0.000D+00 0.000D+00 0.100D+01
 Coeff:     -0.103D-01 0.531D-01 0.244D+00 0.714D+00
 Gap=     0.532 Goal=   None    Shift=    0.000
 RMSDP=9.71D-05 MaxDP=8.68D-03 DE=-7.46D-03 OVMax= 4.42D-03

 Cycle   5  Pass 1  IDiag  1:
 E= -282.944757454716     Delta-E=       -0.000362570355 Rises=F Damp=F
 DIIS: error= 4.82D-04 at cycle   5 NSaved=   5.
 NSaved= 5 IEnMin= 5 EnMin= -282.944757454716     IErMin= 5 ErrMin= 4.82D-04
 ErrMax= 4.82D-04  0.00D+00 EMaxC= 1.00D-01 BMatC= 2.58D-05 BMatP= 4.50D-04
 IDIUse=3 WtCom= 9.95D-01 WtEn= 4.82D-03
 Coeff-Com:  0.190D-02-0.225D-01-0.690D-01 0.340D-01 0.106D+01
 Coeff-En:   0.000D+00 0.000D+00 0.000D+00 0.000D+00 0.100D+01
 Coeff:      0.189D-02-0.224D-01-0.687D-01 0.339D-01 0.106D+01
 Gap=     0.532 Goal=   None    Shift=    0.000
 RMSDP=4.16D-05 MaxDP=4.03D-03 DE=-3.63D-04 OVMax= 3.48D-03

 Cycle   6  Pass 1  IDiag  1:
 E= -282.944805626907     Delta-E=       -0.000048172191 Rises=F Damp=F
 DIIS: error= 8.93D-05 at cycle   6 NSaved=   6.
 NSaved= 6 IEnMin= 6 EnMin= -282.944805626907     IErMin= 6 ErrMin= 8.93D-05
 ErrMax= 8.93D-05  0.00D+00 EMaxC= 1.00D-01 BMatC= 4.15D-06 BMatP= 2.58D-05
 IDIUse=1 WtCom= 1.00D+00 WtEn= 0.00D+00
 Coeff-Com:  0.141D-02-0.103D-01-0.387D-01-0.802D-01 0.192D+00 0.936D+00
 Coeff:      0.141D-02-0.103D-01-0.387D-01-0.802D-01 0.192D+00 0.936D+00
 Gap=     0.533 Goal=   None    Shift=    0.000
 RMSDP=1.77D-05 MaxDP=1.18D-03 DE=-4.82D-05 OVMax= 1.04D-03

 Cycle   7  Pass 1  IDiag  1:
 E= -282.944813126121     Delta-E=       -0.000007499215 Rises=F Damp=F
 DIIS: error= 5.63D-05 at cycle   7 NSaved=   7.
 NSaved= 7 IEnMin= 7 EnMin= -282.944813126121     IErMin= 7 ErrMin= 5.63D-05
 ErrMax= 5.63D-05  0.00D+00 EMaxC= 1.00D-01 BMatC= 5.02D-07 BMatP= 4.15D-06
 IDIUse=1 WtCom= 1.00D+00 WtEn= 0.00D+00
 Coeff-Com: -0.131D-03 0.209D-02 0.771D-02-0.152D-01-0.111D+00 0.291D-01
 Coeff-Com:  0.109D+01
 Coeff:     -0.131D-03 0.209D-02 0.771D-02-0.152D-01-0.111D+00 0.291D-01
 Coeff:      0.109D+01
 Gap=     0.533 Goal=   None    Shift=    0.000
 RMSDP=6.70D-06 MaxDP=7.44D-04 DE=-7.50D-06 OVMax= 6.70D-04

 Cycle   8  Pass 1  IDiag  1:
 E= -282.944814440107     Delta-E=       -0.000001313985 Rises=F Damp=F
 DIIS: error= 1.70D-05 at cycle   8 NSaved=   8.
 NSaved= 8 IEnMin= 8 EnMin= -282.944814440107     IErMin= 8 ErrMin= 1.70D-05
 ErrMax= 1.70D-05  0.00D+00 EMaxC= 1.00D-01 BMatC= 7.57D-08 BMatP= 5.02D-07
 IDIUse=1 WtCom= 1.00D+00 WtEn= 0.00D+00
 Coeff-Com: -0.188D-03 0.138D-02 0.527D-02 0.750D-02-0.156D-01-0.127D+00
 Coeff-Com: -0.743D-01 0.120D+01
 Coeff:     -0.188D-03 0.138D-02 0.527D-02 0.750D-02-0.156D-01-0.127D+00
 Coeff:     -0.743D-01 0.120D+01
 Gap=     0.533 Goal=   None    Shift=    0.000
 RMSDP=2.95D-06 MaxDP=2.84D-04 DE=-1.31D-06 OVMax= 2.85D-04

 Cycle   9  Pass 1  IDiag  1:
 E= -282.944814646692     Delta-E=       -0.000000206585 Rises=F Damp=F
 DIIS: error= 5.46D-06 at cycle   9 NSaved=   9.
 NSaved= 9 IEnMin= 9 EnMin= -282.944814646692     IErMin= 9 ErrMin= 5.46D-06
 ErrMax= 5.46D-06  0.00D+00 EMaxC= 1.00D-01 BMatC= 9.21D-09 BMatP= 7.57D-08
 IDIUse=1 WtCom= 1.00D+00 WtEn= 0.00D+00
 Coeff-Com: -0.189D-04 0.322D-05 0.591D-04 0.236D-02 0.130D-01-0.261D-01
 Coeff-Com: -0.143D+00 0.187D+00 0.967D+00
 Coeff:     -0.189D-04 0.322D-05 0.591D-04 0.236D-02 0.130D-01-0.261D-01
 Coeff:     -0.143D+00 0.187D+00 0.967D+00
 Gap=     0.533 Goal=   None    Shift=    0.000
 RMSDP=9.03D-07 MaxDP=8.76D-05 DE=-2.07D-07 OVMax= 8.36D-05

 Cycle  10  Pass 1  IDiag  1:
 E= -282.944814666695     Delta-E=       -0.000000020003 Rises=F Damp=F
 DIIS: error= 1.98D-06 at cycle  10 NSaved=  10.
 NSaved=10 IEnMin=10 EnMin= -282.944814666695     IErMin=10 ErrMin= 1.98D-06
 ErrMax= 1.98D-06  0.00D+00 EMaxC= 1.00D-01 BMatC= 1.11D-09 BMatP= 9.21D-09
 IDIUse=1 WtCom= 1.00D+00 WtEn= 0.00D+00
 Coeff-Com:  0.236D-04-0.190D-03-0.695D-03-0.118D-02 0.381D-02 0.142D-01
 Coeff-Com:  0.195D-02-0.157D+00 0.824D-01 0.106D+01
 Coeff:      0.236D-04-0.190D-03-0.695D-03-0.118D-02 0.381D-02 0.142D-01
 Coeff:      0.195D-02-0.157D+00 0.824D-01 0.106D+01
 Gap=     0.533 Goal=   None    Shift=    0.000
 RMSDP=3.30D-07 MaxDP=3.42D-05 DE=-2.00D-08 OVMax= 2.41D-05

 Cycle  11  Pass 1  IDiag  1:
 E= -282.944814669056     Delta-E=       -0.000000002360 Rises=F Damp=F
 DIIS: error= 4.41D-07 at cycle  11 NSaved=  11.
 NSaved=11 IEnMin=11 EnMin= -282.944814669056     IErMin=11 ErrMin= 4.41D-07
 ErrMax= 4.41D-07  0.00D+00 EMaxC= 1.00D-01 BMatC= 8.15D-11 BMatP= 1.11D-09
 IDIUse=1 WtCom= 1.00D+00 WtEn= 0.00D+00
 Coeff-Com:  0.551D-06 0.438D-05 0.460D-04-0.161D-03-0.115D-02 0.781D-03
 Coeff-Com:  0.126D-01-0.152D-02-0.980D-01-0.114D+00 0.120D+01
 Coeff:      0.551D-06 0.438D-05 0.460D-04-0.161D-03-0.115D-02 0.781D-03
 Coeff:      0.126D-01-0.152D-02-0.980D-01-0.114D+00 0.120D+01
 Gap=     0.533 Goal=   None    Shift=    0.000
 RMSDP=1.05D-07 MaxDP=8.87D-06 DE=-2.36D-09 OVMax= 5.66D-06

 Cycle  12  Pass 1  IDiag  1:
 E= -282.944814669259     Delta-E=       -0.000000000204 Rises=F Damp=F
 DIIS: error= 1.32D-07 at cycle  12 NSaved=  12.
 NSaved=12 IEnMin=12 EnMin= -282.944814669259     IErMin=12 ErrMin= 1.32D-07
 ErrMax= 1.32D-07  0.00D+00 EMaxC= 1.00D-01 BMatC= 5.35D-12 BMatP= 8.15D-11
 IDIUse=1 WtCom= 1.00D+00 WtEn= 0.00D+00
 Coeff-Com: -0.169D-05 0.131D-04 0.512D-04 0.819D-04-0.207D-03-0.114D-02
 Coeff-Com: -0.119D-02 0.137D-01-0.224D-02-0.775D-01-0.468D-01 0.112D+01
 Coeff:     -0.169D-05 0.131D-04 0.512D-04 0.819D-04-0.207D-03-0.114D-02
 Coeff:     -0.119D-02 0.137D-01-0.224D-02-0.775D-01-0.468D-01 0.112D+01
 Gap=     0.533 Goal=   None    Shift=    0.000
 RMSDP=2.51D-08 MaxDP=1.80D-06 DE=-2.04D-10 OVMax= 1.29D-06

 Cycle  13  Pass 1  IDiag  1:
 E= -282.944814669273     Delta-E=       -0.000000000013 Rises=F Damp=F
 DIIS: error= 4.48D-08 at cycle  13 NSaved=  13.
 NSaved=13 IEnMin=13 EnMin= -282.944814669273     IErMin=13 ErrMin= 4.48D-08
 ErrMax= 4.48D-08  0.00D+00 EMaxC= 1.00D-01 BMatC= 5.68D-13 BMatP= 5.35D-12
 IDIUse=1 WtCom= 1.00D+00 WtEn= 0.00D+00
 Coeff-Com:  0.374D-07-0.109D-05-0.665D-05 0.113D-04 0.141D-03-0.384D-04
 Coeff-Com: -0.147D-02 0.284D-03 0.995D-02 0.113D-01-0.121D+00 0.196D-01
 Coeff-Com:  0.108D+01
 Coeff:      0.374D-07-0.109D-05-0.665D-05 0.113D-04 0.141D-03-0.384D-04
 Coeff:     -0.147D-02 0.284D-03 0.995D-02 0.113D-01-0.121D+00 0.196D-01
 Coeff:      0.108D+01
 Gap=     0.533 Goal=   None    Shift=    0.000
 RMSDP=7.95D-09 MaxDP=4.46D-07 DE=-1.34D-11 OVMax= 5.48D-07

 SCF Done:  E(RHF) =  -282.944814669     A.U. after   13 cycles
            NFock= 13  Conv=0.79D-08     -V/T= 2.0010
 KE= 2.826606876702D+02 PE=-1.028527631283D+03 EE= 2.819178430301D+02
 Leave Link  502 at Thu Apr 15 21:38:23 2021, MaxMem= 13421772800 cpu:             251.9 elap:              32.0
 (Enter /home/hexuye/G16_1123/data2/software/Gaussian/g16_from_xuruiqin/g16/l801.exe)
 Windowed orbitals will be sorted by symmetry type.
 Range of M.O.s used for correlation:     1   285
 NBasis=   285 NAE=    20 NBE=    20 NFC=     0 NFV=     0
 NROrb=    285 NOA=    20 NOB=    20 NVA=   265 NVB=   265

 **** Warning!!: The largest alpha MO coefficient is  0.10176108D+02

 Leave Link  801 at Thu Apr 15 21:38:23 2021, MaxMem= 13421772800 cpu:               9.9 elap:               0.2
 (Enter /home/hexuye/G16_1123/data2/software/Gaussian/g16_from_xuruiqin/g16/l804.exe)
 Closed-shell transformation, MDV= 13421772800 ITran=4 ISComp=1.
 Unit  1 TFree=       2602069 TCopy=       1398271.
 Semi-Direct transformation.
 ModeAB=           4 MOrb=            20 LenV=   13419600965
 LASXX=    221155345 LTotXX=   221155345 LenRXX=   444602395
 LTotAB=   223447050 MaxLAS=   279795900 LenRXY=           0
 NonZer=   665757740 LenScr=   998768640 LnRSAI=   279795900
 LnScr1=   420085760 LExtra=           0 Total=   2143252695
 MaxDsk=          -1 SrtSym=           T ITran=            4
 DoSDTr:  NPSUse= 64
 JobTyp=0 Pass  1:  I=   1 to  20.
 (rs|ai) integrals will be sorted in core.
 Complete sort for first half transformation.
 First half transformation complete.
 Begin second half transformation for I=  10.
 Begin second half transformation for I=  20.
 Complete sort for second half transformation.
 Second half transformation complete.
 SymMOI:  orbitals are not symmetric.
 Spin components of T(2) and E(2):
     alpha-alpha T2 =       0.3622310633D-01 E2=     -0.1443558931D+00
     alpha-beta  T2 =       0.2019500690D+00 E2=     -0.9850459622D+00
     beta-beta   T2 =       0.3622310633D-01 E2=     -0.1443558931D+00
 ANorm=    0.1128891616D+01
 E2 =    -0.1273757748D+01 EUMP2 =    -0.28421857241777D+03
 Leave Link  804 at Thu Apr 15 21:39:12 2021, MaxMem= 13421772800 cpu:            3139.6 elap:              49.3
 (Enter /home/hexuye/G16_1123/data2/software/Gaussian/g16_from_xuruiqin/g16/l913.exe)
 CIDS:  MDV= 13421772800.
 IFCWin=0 IBDFC=1 NFBD=     0     0 NFCmp=     0     0 NFFFC=     0     0
 Using DD3R+UMP44R for 1st iteration.
 Using DD4RQ for 2nd and later iterations.
 Keep R2 and R3 ints in memory in canonical form, NReq=1693583667.
 FoFCou: FMM=F IPFlag=           0 FMFlag=           0 FMFlg1=           0
         NFxFlg=           0 DoJE=F BraDBF=F KetDBF=F FulRan=T
         wScrn=  0.000000 ICntrl=       600 IOpCl=  0 I1Cent=           0 NGrid=           0
         NMat0=    1 NMatS0=  40755 NMatT0=    0 NMatD0=    1 NMtDS0=    0 NMtDT0=    0
 Symmetry not used in FoFCou.
 Two-electron integral symmetry not used.
 CIDS: In Core Option IDoMem=           1.
 CCSD(T)
 =======
 Iterations=  50 Convergence= 0.100D-06
 Produce multiple copies of IABC intergrals
 Iteration Nr.   1
 **********************
 DD1Dir will call FoFMem   1 times, MxPair=       420
 NAB=   210 NAA=     0 NBB=     0.
 MP4(R+Q)=  0.24688697D-01
 Maximum subspace dimension=  5
 A-vector RMS=  1.8162086D-03 Max=  2.3721299D-02 conv= 1.00D-05.
 RLE energy=       -1.2655531068
 E3=       -0.17077403D-01        EUMP3=      -0.28423564982D+03
 E4(DQ)=    0.33333166D-02        UMP4(DQ)=   -0.28423231650D+03
 E4(SDQ)=  -0.95591526D-02        UMP4(SDQ)=  -0.28424520897D+03
 VARIATIONAL ENERGIES WITH THE FIRST-ORDER WAVEFUNCTION:
 DE(Corr)=  -1.2655002     E(Corr)=     -284.21031491    
 NORM(A)=   0.11279165D+01
 Iteration Nr.   2
 **********************
 DD1Dir will call FoFMem   1 times, MxPair=       420
 NAB=   210 NAA=     0 NBB=     0.
 A-vector RMS=  2.7732025D-04 Max=  5.5127924D-03 conv= 1.00D-05.
 RLE energy=       -1.2953561180
 DE(Corr)=  -1.2956626     E(CORR)=     -284.24047724     Delta=-3.02D-02
 NORM(A)=   0.11370268D+01
 Iteration Nr.   3
 **********************
 DD1Dir will call FoFMem   1 times, MxPair=       420
 NAB=   210 NAA=     0 NBB=     0.
 A-vector RMS=  3.4344616D-04 Max=  5.2480749D-03 conv= 1.00D-05.
 RLE energy=       -1.2968859787
 DE(Corr)=  -1.2944288     E(CORR)=     -284.23924342     Delta= 1.23D-03
 NORM(A)=   0.11395910D+01
 Iteration Nr.   4
 **********************
 DD1Dir will call FoFMem   1 times, MxPair=       420
 NAB=   210 NAA=     0 NBB=     0.
 A-vector RMS=  5.9611607D-05 Max=  7.6481174D-04 conv= 1.00D-05.
 RLE energy=       -1.2970549127
 DE(Corr)=  -1.2968640     E(CORR)=     -284.24167862     Delta=-2.44D-03
 NORM(A)=   0.11403849D+01
 Iteration Nr.   5
 **********************
 DD1Dir will call FoFMem   1 times, MxPair=       420
 NAB=   210 NAA=     0 NBB=     0.
 A-vector RMS=  3.6460337D-05 Max=  4.5484095D-04 conv= 1.00D-05.
 RLE energy=       -1.2971804027
 DE(Corr)=  -1.2971334     E(CORR)=     -284.24194804     Delta=-2.69D-04
 NORM(A)=   0.11406411D+01
 Iteration Nr.   6
 **********************
 DD1Dir will call FoFMem   1 times, MxPair=       420
 NAB=   210 NAA=     0 NBB=     0.
 A-vector RMS=  1.1290242D-05 Max=  1.5513029D-04 conv= 1.00D-05.
 RLE energy=       -1.2971747015
 DE(Corr)=  -1.2971563     E(CORR)=     -284.24197101     Delta=-2.30D-05
 NORM(A)=   0.11406758D+01
 Iteration Nr.   7
 **********************
 DD1Dir will call FoFMem   1 times, MxPair=       420
 NAB=   210 NAA=     0 NBB=     0.
 A-vector RMS=  4.8239145D-06 Max=  1.0050077D-04 conv= 1.00D-05.
 RLE energy=       -1.2971419289
 DE(Corr)=  -1.2971578     E(CORR)=     -284.24197244     Delta=-1.43D-06
 NORM(A)=   0.11406756D+01
 Iteration Nr.   8
 **********************
 DD1Dir will call FoFMem   1 times, MxPair=       420
 NAB=   210 NAA=     0 NBB=     0.
 A-vector RMS=  1.5149959D-06 Max=  2.3328412D-05 conv= 1.00D-05.
 RLE energy=       -1.2971572755
 DE(Corr)=  -1.2971581     E(CORR)=     -284.24197281     Delta=-3.70D-07
 NORM(A)=   0.11406805D+01
 Iteration Nr.   9
 **********************
 DD1Dir will call FoFMem   1 times, MxPair=       420
 NAB=   210 NAA=     0 NBB=     0.
 A-vector RMS=  5.1674735D-07 Max=  1.1458802D-05 conv= 1.00D-05.
 RLE energy=       -1.2971552584
 DE(Corr)=  -1.2971555     E(CORR)=     -284.24197020     Delta= 2.61D-06
 NORM(A)=   0.11406806D+01
 Iteration Nr.  10
 **********************
 DD1Dir will call FoFMem   1 times, MxPair=       420
 NAB=   210 NAA=     0 NBB=     0.
 A-vector RMS=  2.2383865D-07 Max=  3.0525618D-06 conv= 1.00D-05.
 RLE energy=       -1.2971564527
 DE(Corr)=  -1.2971568     E(CORR)=     -284.24197144     Delta=-1.24D-06
 NORM(A)=   0.11406810D+01
 Iteration Nr.  11
 **********************
 DD1Dir will call FoFMem   1 times, MxPair=       420
 NAB=   210 NAA=     0 NBB=     0.
 A-vector RMS=  1.1313866D-07 Max=  1.7854875D-06 conv= 1.00D-05.
 RLE energy=       -1.2971569653
 DE(Corr)=  -1.2971567     E(CORR)=     -284.24197141     Delta= 2.48D-08
 NORM(A)=   0.11406814D+01
 CI/CC converged in   11 iterations to DelEn= 2.48D-08 Conv= 1.00D-07 ErrA1= 1.13D-07 Conv= 1.00D-05
 Wavefunction amplitudes converged. E(Corr)=     -284.24197141    
 Largest amplitude= 3.31D-02
 T4(AAA)= -0.14271905D-02
 T4(AAB)= -0.22946639D-01
 T5(AAA)=  0.87928693D-04
 T5(AAB)=  0.10117576D-02
 Time for triples=   182731.60 seconds.
 T4(CCSD)= -0.48747660D-01
 T5(CCSD)=  0.21993726D-02
 CCSD(T)= -0.28428851970D+03
 Discarding MO integrals.
 Leave Link  913 at Thu Apr 15 22:38:03 2021, MaxMem= 13421772800 cpu:          220789.2 elap:            3495.1
 (Enter /home/hexuye/G16_1123/data2/software/Gaussian/g16_from_xuruiqin/g16/l601.exe)
 Copying SCF densities to generalized density rwf, IOpCl= 0 IROHF=0.

 **********************************************************************

            Population analysis using the SCF Density.

 **********************************************************************

 Orbital symmetries:
       Occupied  (A) (A) (A) (A) (A) (A) (A) (A) (A) (A) (A) (A)
                 (A) (A) (A) (A) (A) (A) (A) (A)
       Virtual   (A) (A) (A) (A) (A) (A) (A) (A) (A) (A) (A) (A)
                 (A) (A) (A) (A) (A) (A) (A) (A) (A) (A) (A) (A)
                 (A) (A) (A) (A) (A) (A) (A) (A) (A) (A) (A) (A)
                 (A) (A) (A) (A) (A) (A) (A) (A) (A) (A) (A) (A)
                 (A) (A) (A) (A) (A) (A) (A) (A) (A) (A) (A) (A)
                 (A) (A) (A) (A) (A) (A) (A) (A) (A) (A) (A) (A)
                 (A) (A) (A) (A) (A) (A) (A) (A) (A) (A) (A) (A)
                 (A) (A) (A) (A) (A) (A) (A) (A) (A) (A) (A) (A)
                 (A) (A) (A) (A) (A) (A) (A) (A) (A) (A) (A) (A)
                 (A) (A) (A) (A) (A) (A) (A) (A) (A) (A) (A) (A)
                 (A) (A) (A) (A) (A) (A) (A) (A) (A) (A) (A) (A)
                 (A) (A) (A) (A) (A) (A) (A) (A) (A) (A) (A) (A)
                 (A) (A) (A) (A) (A) (A) (A) (A) (A) (A) (A) (A)
                 (A) (A) (A) (A) (A) (A) (A) (A) (A) (A) (A) (A)
                 (A) (A) (A) (A) (A) (A) (A) (A) (A) (A) (A) (A)
                 (A) (A) (A) (A) (A) (A) (A) (A) (A) (A) (A) (A)
                 (A) (A) (A) (A) (A) (A) (A) (A) (A) (A) (A) (A)
                 (A) (A) (A) (A) (A) (A) (A) (A) (A) (A) (A) (A)
                 (A) (A) (A) (A) (A) (A) (A) (A) (A) (A) (A) (A)
                 (A) (A) (A) (A) (A) (A) (A) (A) (A) (A) (A) (A)
                 (A) (A) (A) (A) (A) (A) (A) (A) (A) (A) (A) (A)
                 (A) (A) (A) (A) (A) (A) (A) (A) (A) (A) (A) (A)
                 (A)
 The electronic state is 1-A.
 Alpha  occ. eigenvalues --  -20.59205 -20.52770 -15.58430 -11.37054 -11.28807
 Alpha  occ. eigenvalues --   -1.45094  -1.35333  -1.22206  -0.97738  -0.80902
 Alpha  occ. eigenvalues --   -0.73478  -0.71256  -0.67489  -0.62523  -0.62056
 Alpha  occ. eigenvalues --   -0.55982  -0.55604  -0.47161  -0.46256  -0.42218
 Alpha virt. eigenvalues --    0.11110   0.15210   0.16709   0.19414   0.20656
 Alpha virt. eigenvalues --    0.24438   0.30184   0.31955   0.35722   0.41956
 Alpha virt. eigenvalues --    0.43392   0.44972   0.47733   0.49639   0.52856
 Alpha virt. eigenvalues --    0.54831   0.55942   0.58384   0.59610   0.61561
 Alpha virt. eigenvalues --    0.63568   0.65238   0.66275   0.69457   0.71734
 Alpha virt. eigenvalues --    0.73534   0.76733   0.80132   0.82277   0.83355
 Alpha virt. eigenvalues --    0.88851   0.89726   0.92868   0.96916   0.98540
 Alpha virt. eigenvalues --    1.02246   1.07189   1.09800   1.14143   1.16912
 Alpha virt. eigenvalues --    1.18784   1.20388   1.23200   1.27004   1.28604
 Alpha virt. eigenvalues --    1.31652   1.33281   1.34274   1.38452   1.41475
 Alpha virt. eigenvalues --    1.44543   1.46575   1.50102   1.51012   1.53032
 Alpha virt. eigenvalues --    1.54800   1.60930   1.67519   1.69966   1.75757
 Alpha virt. eigenvalues --    1.79754   1.82984   1.86560   1.90298   1.93558
 Alpha virt. eigenvalues --    1.97730   2.01706   2.05673   2.21494   2.26281
 Alpha virt. eigenvalues --    2.30168   2.32129   2.33922   2.37284   2.40305
 Alpha virt. eigenvalues --    2.44427   2.54672   2.60375   2.67435   2.72497
 Alpha virt. eigenvalues --    2.73579   2.78721   2.79701   2.89562   2.94555
 Alpha virt. eigenvalues --    2.96469   3.01851   3.03413   3.11509   3.13710
 Alpha virt. eigenvalues --    3.15483   3.17395   3.19232   3.28683   3.30742
 Alpha virt. eigenvalues --    3.33827   3.34650   3.38603   3.38874   3.42643
 Alpha virt. eigenvalues --    3.44087   3.48425   3.50752   3.52243   3.53560
 Alpha virt. eigenvalues --    3.55735   3.59173   3.63341   3.65418   3.67969
 Alpha virt. eigenvalues --    3.71860   3.74347   3.74563   3.77290   3.82763
 Alpha virt. eigenvalues --    3.84905   3.85219   3.89472   3.94511   3.98865
 Alpha virt. eigenvalues --    3.99405   4.03130   4.08926   4.10889   4.15375
 Alpha virt. eigenvalues --    4.16702   4.17916   4.22283   4.24813   4.29520
 Alpha virt. eigenvalues --    4.29985   4.32442   4.35586   4.39408   4.40711
 Alpha virt. eigenvalues --    4.43773   4.46953   4.51644   4.52925   4.55122
 Alpha virt. eigenvalues --    4.58570   4.61398   4.68129   4.70925   4.72464
 Alpha virt. eigenvalues --    4.79378   4.82768   4.95596   5.01163   5.06589
 Alpha virt. eigenvalues --    5.08715   5.12288   5.20210   5.22570   5.25376
 Alpha virt. eigenvalues --    5.34262   5.41959   5.44725   5.49856   5.51902
 Alpha virt. eigenvalues --    5.60328   5.63833   5.64633   5.65813   5.72988
 Alpha virt. eigenvalues --    5.78645   5.82317   5.83393   5.97690   6.01317
 Alpha virt. eigenvalues --    6.05536   6.07828   6.09536   6.15391   6.17709
 Alpha virt. eigenvalues --    6.21319   6.29320   6.33367   6.43586   6.48792
 Alpha virt. eigenvalues --    6.58381   6.70638   6.79628   6.85559   6.96366
 Alpha virt. eigenvalues --    7.00285   7.11155   7.14108   7.20518   7.25230
 Alpha virt. eigenvalues --    7.29520   7.30602   7.36082   7.40336   7.43216
 Alpha virt. eigenvalues --    7.53901   7.62274   7.82118   7.90096   8.33029
 Alpha virt. eigenvalues --   10.45451  11.31893  11.37697  11.50508  11.57763
 Alpha virt. eigenvalues --   11.94431  13.21998  13.48854  14.78842  14.86138
 Alpha virt. eigenvalues --   14.98962  15.03612  15.05318  15.09715  15.30171
 Alpha virt. eigenvalues --   15.61930  15.64987  15.66059  15.95483  16.00601
 Alpha virt. eigenvalues --   16.23093  17.80707  19.08915  19.17336  19.36272
 Alpha virt. eigenvalues --   19.67410  20.21073  20.30995  21.94706  21.98340
 Alpha virt. eigenvalues --   22.03242  22.31929  22.56812  22.90229  23.23166
 Alpha virt. eigenvalues --   30.07205  30.10964  30.11857  30.19607  30.25197
 Alpha virt. eigenvalues --   30.25691  30.30953  30.41609  30.55217  30.57228
 Alpha virt. eigenvalues --   50.34441  50.92336  51.04554  51.11412  51.18260
 Alpha virt. eigenvalues --   51.33239  62.71931  63.30711  70.34923  70.75875
 Alpha virt. eigenvalues --   70.97795  83.55102  90.45990  90.53620  90.67193
 Alpha virt. eigenvalues --   90.91861  91.33021  91.45210 108.01827 108.38738
          Condensed to atoms (all electrons):
               1          2          3          4          5          6
     1  N    6.414290   0.386879   0.276787  -0.069436  -0.028475  -0.037938
     2  H    0.386879   0.541472  -0.035747   0.005594   0.005152  -0.009260
     3  C    0.276787  -0.035747   4.845924   0.327519   0.411577   0.433947
     4  C   -0.069436   0.005594   0.327519   4.211467  -0.029936  -0.052863
     5  H   -0.028475   0.005152   0.411577  -0.029936   0.574731  -0.012988
     6  H   -0.037938  -0.009260   0.433947  -0.052863  -0.012988   0.576442
     7  O    0.003481  -0.000119  -0.088505   0.752817   0.003279   0.007263
     8  O   -0.014624   0.000783  -0.099185   0.399769   0.002028   0.003830
     9  H    0.381926  -0.027553  -0.027349   0.005997  -0.010840   0.000166
    10  H    0.046120  -0.001816  -0.011154  -0.043482   0.001099   0.002403
               7          8          9         10
     1  N    0.003481  -0.014624   0.381926   0.046120
     2  H   -0.000119   0.000783  -0.027553  -0.001816
     3  C   -0.088505  -0.099185  -0.027349  -0.011154
     4  C    0.752817   0.399769   0.005997  -0.043482
     5  H    0.003279   0.002028  -0.010840   0.001099
     6  H    0.007263   0.003830   0.000166   0.002403
     7  O    7.847694  -0.079836  -0.000218   0.005123
     8  O   -0.079836   7.803470  -0.000124   0.329852
     9  H   -0.000218  -0.000124   0.540878  -0.001649
    10  H    0.005123   0.329852  -0.001649   0.423036
 Mulliken charges:
               1
     1  N   -0.359012
     2  H    0.134614
     3  C   -0.033814
     4  C    0.492554
     5  H    0.084374
     6  H    0.088997
     7  O   -0.450980
     8  O   -0.345963
     9  H    0.138766
    10  H    0.250466
 Sum of Mulliken charges =  -0.00000
 Mulliken charges with hydrogens summed into heavy atoms:
               1
     1  N   -0.085633
     3  C    0.139556
     4  C    0.492554
     7  O   -0.450980
     8  O   -0.095498
 Electronic spatial extent (au):  <R**2>=            408.5558
 Charge=             -0.0000 electrons
 Dipole moment (field-independent basis, Debye):
    X=             -5.8829    Y=             -0.7068    Z=             -0.0095  Tot=              5.9252
 Quadrupole moment (field-independent basis, Debye-Ang):
   XX=            -31.8661   YY=            -30.9721   ZZ=            -26.9291
   XY=              1.7396   XZ=              0.5537   YZ=             -0.4707
 Traceless Quadrupole moment (field-independent basis, Debye-Ang):
   XX=             -1.9437   YY=             -1.0497   ZZ=              2.9934
   XY=              1.7396   XZ=              0.5537   YZ=             -0.4707
 Octapole moment (field-independent basis, Debye-Ang**2):
  XXX=            -25.6660  YYY=              2.2978  ZZZ=             -0.8216  XYY=             -4.3562
  XXY=              2.5920  XXZ=              0.2556  XZZ=             -3.6031  YZZ=             -0.3894
  YYZ=              0.1028  XYZ=              0.5584
 Hexadecapole moment (field-independent basis, Debye-Ang**3):
 XXXX=           -292.5725 YYYY=           -135.5912 ZZZZ=            -33.2206 XXXY=              9.5633
 XXXZ=             -0.6687 YYYX=             -3.7430 YYYZ=              0.9786 ZZZX=              2.1658
 ZZZY=             -0.9241 XXYY=            -83.0165 XXZZ=            -48.5494 YYZZ=            -27.8778
 XXYZ=             -2.2663 YYXZ=             -0.0238 ZZXY=              0.4550
 N-N= 1.810042859132D+02 E-N=-1.028527628960D+03  KE= 2.826606876702D+02
 Leave Link  601 at Thu Apr 15 22:38:26 2021, MaxMem= 13421772800 cpu:              23.7 elap:              13.2
 (Enter /home/hexuye/G16_1123/data2/software/Gaussian/g16_from_xuruiqin/g16/l9999.exe)
 Unable to Open any file for archive entry.
 1\1\GINC-CU38\SP\RCCSD(T)-Full\Gen\C2H5N1O2\ROOT\15-Apr-2021\0\\#p CCS
 D(T)=FULL/gen\\start best geom PCCP paper\\0,1\N\H,1,1.0091\C,1,1.4609
 ,2,112.0646\C,3,1.5252,1,111.6045,2,101.3936,0\H,3,1.0891,1,110.2343,4
 ,117.8521,0\H,3,1.089,1,113.9016,4,-121.6454,0\O,4,1.2001,3,122.6125,1
 ,-171.93,0\O,4,1.3356,3,114.3853,1,8.8971,0\H,1,1.008,3,112.2608,4,-13
 6.9715,0\H,8,0.976,4,105.7699,3,-1.3866,0\\Version=ES64L-G16RevC.01\St
 ate=1-A\HF=-282.9448147\MP2=-284.2185724\MP3=-284.2356498\MP4D=-284.25
 70052\MP4DQ=-284.2323165\MP4SDQ=-284.245209\CCSD=-284.2419714\CCSD(T)=
 -284.2885197\RMSD=7.948e-09\PG=C01 [X(C2H5N1O2)]\\@
 The archive entry for this job was punched.


 I am not a vegetarian because I love animals;
 I am a vegetarian because I hate plants.
                               -- A. Whitney Brown
 Job cpu time:       2 days 14 hours 19 minutes  9.6 seconds.
 Elapsed time:       0 days  0 hours 59 minutes 52.9 seconds.
 File lengths (MBytes):  RWF= 116723 Int=      0 D2E=      0 Chk=      7 Scr=      2
 Normal termination of Gaussian 16 at Thu Apr 15 22:38:33 2021.
