 Entering Gaussian System, Link 0=g16
 Input=gct_Best_geom_CCSDT_cc-pwCVTZ-fc.gjf
 Output=gct_Best_geom_CCSDT_cc-pwCVTZ-fc.log
 AtFile(1): /home/hexuye/glycine/cc-pwcvtz.0.gbs
            H     0
            S    5   1.00
                  3.387000D+01           6.068000D-03
                  5.095000D+00           4.530800D-02
                  1.159000D+00           2.028220D-01
                  3.258000D-01           5.039030D-01
                  1.027000D-01           3.834210D-01
            S    1   1.00
                  3.258000D-01           1.000000D+00
            S    1   1.00
                  1.027000D-01           1.000000D+00
            P    1   1.00
                  1.407000D+00           1.000000D+00
            P    1   1.00
                  3.880000D-01           1.000000D+00
            D    1   1.00
                  1.057000D+00           1.0000000
            ****
            C     0
            S    10   1.00
               8236.0000000              0.0005310
               1235.0000000              0.0041080
                280.8000000              0.0210870
                 79.2700000              0.0818530
                 25.5900000              0.2348170
                  8.9970000              0.4344010
                  3.3190000              0.3461290
                  0.9059000              0.0393780
                  0.3643000             -0.0089830
                  0.1285000              0.0023850
            S    10   1.00
               8236.0000000             -0.0001130
               1235.0000000             -0.0008780
                280.8000000             -0.0045400
                 79.2700000             -0.0181330
                 25.5900000             -0.0557600
                  8.9970000             -0.1268950
                  3.3190000             -0.1703520
                  0.9059000              0.1403820
                  0.3643000              0.5986840
                  0.1285000              0.3953890
            S    1   1.00
                  8.828000               1.000000
            S    1   1.00
                  3.474000               1.000000
            S    1   1.00
                  0.9059000              1.0000000
            S    1   1.00
                  0.1285000              1.0000000
            P    5   1.00
                 18.7100000              0.0140310
                  4.1330000              0.0868660
                  1.2000000              0.2902160
                  0.3827000              0.5010080
                  0.1209000              0.3434060
            P    1   1.00
                 21.55200                1.000000
            P    1   1.00
                  5.442000               1.000000
            P    1   1.00
                  0.3827000              1.0000000
            P    1   1.00
                  0.1209000              1.0000000
            D    1   1.00
                  4.950000               1.000000
            D    1   1.00
                  1.0970000              1.0000000
            D    1   1.00
                  0.3180000              1.0000000
            F    1   1.00
                  0.7610000              1.0000000
            ****
            N     0
            S    10   1.00
              11420.0000000              0.0005230
               1712.0000000              0.0040450
                389.3000000              0.0207750
                110.0000000              0.0807270
                 35.5700000              0.2330740
                 12.5400000              0.4335010
                  4.6440000              0.3474720
                  1.2930000              0.0412620
                  0.5118000             -0.0085080
                  0.1787000              0.0023840
            S    10   1.00
              11420.0000000             -0.0001150
               1712.0000000             -0.0008950
                389.3000000             -0.0046240
                110.0000000             -0.0185280
                 35.5700000             -0.0573390
                 12.5400000             -0.1320760
                  4.6440000             -0.1725100
                  1.2930000              0.1518140
                  0.5118000              0.5999440
                  0.1787000              0.3874620
            S    1   1.00
                 11.80700                1.000000
            S    1   1.00
                  4.733000               1.000000
            S    1   1.00
                  1.2930000              1.0000000
            S    1   1.00
                  0.1787000              1.0000000
            P    5   1.00
                 26.6300000              0.0146700
                  5.9480000              0.0917640
                  1.7420000              0.2986830
                  0.5550000              0.4984870
                  0.1725000              0.3370230
            P    1   1.00
                 29.81800                1.000000
            P    1   1.00
                  7.743000               1.000000
            P    1   1.00
                  0.5550000              1.0000000
            P    1   1.00
                  0.1725000              1.0000000
            D    1   1.00
                  7.352000               1.000000
            D    1   1.00
                  1.6540000              1.0000000
            D    1   1.00
                  0.4690000              1.0000000
            F    1   1.00
                  1.0930000              1.0000000
            ****
            O     0
            S    10   1.00
              15330.0000000              0.0005080
               2299.0000000              0.0039290
                522.4000000              0.0202430
                147.3000000              0.0791810
                 47.5500000              0.2306870
                 16.7600000              0.4331180
                  6.2070000              0.3502600
                  1.7520000              0.0427280
                  0.6882000             -0.0081540
                  0.2384000              0.0023810
            S    10   1.00
              15330.0000000             -0.0001150
               2299.0000000             -0.0008950
                522.4000000             -0.0046360
                147.3000000             -0.0187240
                 47.5500000             -0.0584630
                 16.7600000             -0.1364630
                  6.2070000             -0.1757400
                  1.7520000              0.1609340
                  0.6882000              0.6034180
                  0.2384000              0.3787650
            S    1   1.00
                 15.38100                1.000000
            S    1   1.00
                  6.245000               1.000000
            S    1   1.00
                  1.7520000              1.0000000
            S    1   1.00
                  0.2384000              1.0000000
            P    5   1.00
                 34.4600000              0.0159280
                  7.7490000              0.0997400
                  2.2800000              0.3104920
                  0.7156000              0.4910260
                  0.2140000              0.3363370
            P    1   1.00
                 38.48400                1.000000
            P    1   1.00
                 10.21600                1.000000
            P    1   1.00
                  0.7156000              1.0000000
            P    1   1.00
                  0.2140000              1.0000000
            D    1   1.00
                 10.23800                1.000000
            D    1   1.00
                  2.3140000              1.0000000
            D    1   1.00
                  0.6450000              1.0000000
            F    1   1.00
                  1.4280000              1.0000000
            ****
 Initial command:
 /home/hexuye/G16_1123/data2/software/Gaussian/g16_from_xuruiqin/g16/l1.exe "/home/hexuye/scratch/Gau-272185.inp" -scrdir="/home/hexuye/scratch/"
 Entering Link 1 = /home/hexuye/G16_1123/data2/software/Gaussian/g16_from_xuruiqin/g16/l1.exe PID=    272186.
  
 Copyright (c) 1988-2019, Gaussian, Inc.  All Rights Reserved.
  
 This is part of the Gaussian(R) 16 program.  It is based on
 the Gaussian(R) 09 system (copyright 2009, Gaussian, Inc.),
 the Gaussian(R) 03 system (copyright 2003, Gaussian, Inc.),
 the Gaussian(R) 98 system (copyright 1998, Gaussian, Inc.),
 the Gaussian(R) 94 system (copyright 1995, Gaussian, Inc.),
 the Gaussian 92(TM) system (copyright 1992, Gaussian, Inc.),
 the Gaussian 90(TM) system (copyright 1990, Gaussian, Inc.),
 the Gaussian 88(TM) system (copyright 1988, Gaussian, Inc.),
 the Gaussian 86(TM) system (copyright 1986, Carnegie Mellon
 University), and the Gaussian 82(TM) system (copyright 1983,
 Carnegie Mellon University). Gaussian is a federally registered
 trademark of Gaussian, Inc.
  
 This software contains proprietary and confidential information,
 including trade secrets, belonging to Gaussian, Inc.
  
 This software is provided under written license and may be
 used, copied, transmitted, or stored only in accord with that
 written license.
  
 The following legend is applicable only to US Government
 contracts under FAR:
  
                    RESTRICTED RIGHTS LEGEND
  
 Use, reproduction and disclosure by the US Government is
 subject to restrictions as set forth in subparagraphs (a)
 and (c) of the Commercial Computer Software - Restricted
 Rights clause in FAR 52.227-19.
  
 Gaussian, Inc.
 340 Quinnipiac St., Bldg. 40, Wallingford CT 06492
  
  
 ---------------------------------------------------------------
 Warning -- This program may not be used in any manner that
 competes with the business of Gaussian, Inc. or will provide
 assistance to any competitor of Gaussian, Inc.  The licensee
 of this program is prohibited from giving any competitor of
 Gaussian, Inc. access to this program.  By using this program,
 the user acknowledges that Gaussian, Inc. is engaged in the
 business of creating and licensing software in the field of
 computational chemistry and represents and warrants to the
 licensee that it is not a competitor of Gaussian, Inc. and that
 it will not use this program in any manner prohibited above.
 ---------------------------------------------------------------
  

 Cite this work as:
 Gaussian 16, Revision C.01,
 M. J. Frisch, G. W. Trucks, H. B. Schlegel, G. E. Scuseria, 
 M. A. Robb, J. R. Cheeseman, G. Scalmani, V. Barone, 
 G. A. Petersson, H. Nakatsuji, X. Li, M. Caricato, A. V. Marenich, 
 J. Bloino, B. G. Janesko, R. Gomperts, B. Mennucci, H. P. Hratchian, 
 J. V. Ortiz, A. F. Izmaylov, J. L. Sonnenberg, D. Williams-Young, 
 F. Ding, F. Lipparini, F. Egidi, J. Goings, B. Peng, A. Petrone, 
 T. Henderson, D. Ranasinghe, V. G. Zakrzewski, J. Gao, N. Rega, 
 G. Zheng, W. Liang, M. Hada, M. Ehara, K. Toyota, R. Fukuda, 
 J. Hasegawa, M. Ishida, T. Nakajima, Y. Honda, O. Kitao, H. Nakai, 
 T. Vreven, K. Throssell, J. A. Montgomery, Jr., J. E. Peralta, 
 F. Ogliaro, M. J. Bearpark, J. J. Heyd, E. N. Brothers, K. N. Kudin, 
 V. N. Staroverov, T. A. Keith, R. Kobayashi, J. Normand, 
 K. Raghavachari, A. P. Rendell, J. C. Burant, S. S. Iyengar, 
 J. Tomasi, M. Cossi, J. M. Millam, M. Klene, C. Adamo, R. Cammi, 
 J. W. Ochterski, R. L. Martin, K. Morokuma, O. Farkas, 
 J. B. Foresman, and D. J. Fox, Gaussian, Inc., Wallingford CT, 2019.
 
 ******************************************
 Gaussian 16:  ES64L-G16RevC.01  3-Jul-2019
                15-Apr-2021 
 ******************************************
 %chk=gct_Best_geom_CCSDT_cc-pwCVTZ-fc.chk
 %nprocshared=64
 Will use up to   64 processors via shared memory.
 %mem=100GB
 --------------
 #p CCSD(T)/gen
 --------------
 1/38=1,172=1/1;
 2/12=2,17=6,18=5,40=1/2;
 3/5=7,11=9,25=1,30=1/1,2,3;
 4//1;
 5/5=2,38=5/2;
 8/6=4,9=120000,10=1/1,4;
 9/5=7,14=2/13;
 6/7=2,8=2,9=2,10=2/1;
 99/5=1,9=1/99;
 Leave Link    1 at Thu Apr 15 19:27:20 2021, MaxMem= 13421772800 cpu:               8.1 elap:               0.1
 (Enter /home/hexuye/G16_1123/data2/software/Gaussian/g16_from_xuruiqin/g16/l101.exe)
 --------------------------
 start best geom PCCP paper
 --------------------------
 Symbolic Z-matrix:
 Charge =  0 Multiplicity = 1
 C
 O                    1    B1
 O                    1    B2       2    A1
 H                    2    B3       1    A2       3    D1       0
 C                    1    B4       3    A3       2    D2       0
 N                    5    B5       1    A4       3    D3       0
 H                    5    B6       1    A5       3    D4       0
 H                    5    B7       1    A6       3    D5       0
 H                    6    B8       5    A7       1    D6       0
 H                    6    B9       5    A8       1    D7       0
       Variables:
  B1                    1.3486                   
  B2                    1.20239                  
  B3                    0.96515                  
  B4                    1.50625                  
  B5                    1.45443                  
  B6                    1.09773                  
  B7                    1.08654                  
  B8                    1.00989                  
  B9                    1.01063                  
  A1                  122.85413                  
  A2                  106.77622                  
  A3                  125.06726                  
  A4                  111.81084                  
  A5                  105.69489                  
  A6                  106.9966                   
  A7                  110.58167                  
  A8                  111.13985                  
  D1                    0.85878                  
  D2                 -176.8326                   
  D3                 -146.04703                  
  D4                   88.80239                  
  D5                  -25.78313                  
  D6                 -178.47161                  
  D7                  -58.48891                  
 
 ITRead=  0  0  0  0  0  0  0  0  0  0
 MicOpt= -1 -1 -1 -1 -1 -1 -1 -1 -1 -1
 NAtoms=     10 NQM=       10 NQMF=       0 NMMI=      0 NMMIF=      0
                NMic=       0 NMicF=      0.
                    Isotopes and Nuclear Properties:
 (Nuclear quadrupole moments (NQMom) in fm**2, nuclear magnetic moments (NMagM)
  in nuclear magnetons)

  Atom         1           2           3           4           5           6           7           8           9          10
 IAtWgt=          12          16          16           1          12          14           1           1           1           1
 AtmWgt=  12.0000000  15.9949146  15.9949146   1.0078250  12.0000000  14.0030740   1.0078250   1.0078250   1.0078250   1.0078250
 NucSpn=           0           0           0           1           0           2           1           1           1           1
 AtZEff=  -0.0000000  -0.0000000  -0.0000000  -0.0000000  -0.0000000  -0.0000000  -0.0000000  -0.0000000  -0.0000000  -0.0000000
 NQMom=    0.0000000   0.0000000   0.0000000   0.0000000   0.0000000   2.0440000   0.0000000   0.0000000   0.0000000   0.0000000
 NMagM=    0.0000000   0.0000000   0.0000000   2.7928460   0.0000000   0.4037610   2.7928460   2.7928460   2.7928460   2.7928460
 AtZNuc=   6.0000000   8.0000000   8.0000000   1.0000000   6.0000000   7.0000000   1.0000000   1.0000000   1.0000000   1.0000000
 Leave Link  101 at Thu Apr 15 19:27:21 2021, MaxMem= 13421772800 cpu:              12.6 elap:               0.3
 (Enter /home/hexuye/G16_1123/data2/software/Gaussian/g16_from_xuruiqin/g16/l202.exe)
                          Input orientation:                          
 ---------------------------------------------------------------------
 Center     Atomic      Atomic             Coordinates (Angstroms)
 Number     Number       Type             X           Y           Z
 ---------------------------------------------------------------------
      1          6           0        0.000000    0.000000    0.000000
      2          8           0        0.000000    0.000000    1.348600
      3          8           0        1.010073    0.000000   -0.652299
      4          1           0        0.923971    0.013850    1.627176
      5          6           0       -1.394774   -0.068118   -0.564585
      6          7           0       -2.339318    0.696016    0.234978
      7          1           0       -1.629765   -1.137206   -0.647301
      8          1           0       -1.350295    0.339091   -1.570950
      9          1           0       -3.271551    0.617353   -0.145326
     10          1           0       -2.361616    0.363761    1.189170
 ---------------------------------------------------------------------
                    Distance matrix (angstroms):
                    1          2          3          4          5
     1  C    0.000000
     2  O    1.348600   0.000000
     3  O    1.202390   2.241393   0.000000
     4  H    1.871260   0.965152   2.281143   0.000000
     5  C    1.506250   2.368609   2.407410   3.191725   0.000000
     6  N    2.451951   2.682723   3.534136   3.612841   1.454430
     7  H    2.090064   2.816556   2.874370   3.608288   1.097730
     8  H    2.099086   3.234510   2.555434   3.937776   1.086540
     9  H    3.332461   3.649108   4.355509   4.594386   2.041554
    10  H    2.669022   2.394780   3.858966   3.333072   2.048648
                    6          7          8          9         10
     6  N    0.000000
     7  H    2.154666   0.000000
     8  H    2.089722   1.763713   0.000000
     9  H    1.009890   2.454775   2.408539   0.000000
    10  H    1.010630   2.482163   2.939667   1.634983   0.000000
 Stoichiometry    C2H5NO2
 Framework group  C1[X(C2H5NO2)]
 Deg. of freedom    24
 Full point group                 C1      NOp   1
 Largest Abelian subgroup         C1      NOp   1
 Largest concise Abelian subgroup C1      NOp   1
                         Standard orientation:                         
 ---------------------------------------------------------------------
 Center     Atomic      Atomic             Coordinates (Angstroms)
 Number     Number       Type             X           Y           Z
 ---------------------------------------------------------------------
      1          6           0        0.618518   -0.113452    0.015582
      2          8           0        0.629857    1.232314    0.102216
      3          8           0        1.611391   -0.762918   -0.179712
      4          1           0        1.543352    1.512541   -0.033863
      5          6           0       -0.754494   -0.683284    0.258311
      6          7           0       -1.797230    0.162725   -0.300561
      7          1           0       -0.825344   -0.835413    1.343137
      8          1           0       -0.780740   -1.661095   -0.214728
      9          1           0       -2.709920   -0.223225   -0.105836
     10          1           0       -1.760866    1.093359    0.091830
 ---------------------------------------------------------------------
 Rotational constants (GHZ):           9.8584151           4.1013166           3.0576868
 Leave Link  202 at Thu Apr 15 19:27:21 2021, MaxMem= 13421772800 cpu:               2.2 elap:               0.1
 (Enter /home/hexuye/G16_1123/data2/software/Gaussian/g16_from_xuruiqin/g16/l301.exe)
 General basis read from cards:  (5D, 7F)
 Centers:       4      7      8      9     10
 S 5 1.00
     Exponent=  3.3870000000D+01 Coefficients=  6.0680000000D-03
     Exponent=  5.0950000000D+00 Coefficients=  4.5308000000D-02
     Exponent=  1.1590000000D+00 Coefficients=  2.0282200000D-01
     Exponent=  3.2580000000D-01 Coefficients=  5.0390300000D-01
     Exponent=  1.0270000000D-01 Coefficients=  3.8342100000D-01
 S 1 1.00
     Exponent=  3.2580000000D-01 Coefficients=  1.0000000000D+00
 S 1 1.00
     Exponent=  1.0270000000D-01 Coefficients=  1.0000000000D+00
 P 1 1.00
     Exponent=  1.4070000000D+00 Coefficients=  1.0000000000D+00
 P 1 1.00
     Exponent=  3.8800000000D-01 Coefficients=  1.0000000000D+00
 D 1 1.00
     Exponent=  1.0570000000D+00 Coefficients=  1.0000000000D+00
 ****
 Centers:       1      5
 S 10 1.00
     Exponent=  8.2360000000D+03 Coefficients=  5.3100000000D-04
     Exponent=  1.2350000000D+03 Coefficients=  4.1080000000D-03
     Exponent=  2.8080000000D+02 Coefficients=  2.1087000000D-02
     Exponent=  7.9270000000D+01 Coefficients=  8.1853000000D-02
     Exponent=  2.5590000000D+01 Coefficients=  2.3481700000D-01
     Exponent=  8.9970000000D+00 Coefficients=  4.3440100000D-01
     Exponent=  3.3190000000D+00 Coefficients=  3.4612900000D-01
     Exponent=  9.0590000000D-01 Coefficients=  3.9378000000D-02
     Exponent=  3.6430000000D-01 Coefficients= -8.9830000000D-03
     Exponent=  1.2850000000D-01 Coefficients=  2.3850000000D-03
 S 10 1.00
     Exponent=  8.2360000000D+03 Coefficients= -1.1300000000D-04
     Exponent=  1.2350000000D+03 Coefficients= -8.7800000000D-04
     Exponent=  2.8080000000D+02 Coefficients= -4.5400000000D-03
     Exponent=  7.9270000000D+01 Coefficients= -1.8133000000D-02
     Exponent=  2.5590000000D+01 Coefficients= -5.5760000000D-02
     Exponent=  8.9970000000D+00 Coefficients= -1.2689500000D-01
     Exponent=  3.3190000000D+00 Coefficients= -1.7035200000D-01
     Exponent=  9.0590000000D-01 Coefficients=  1.4038200000D-01
     Exponent=  3.6430000000D-01 Coefficients=  5.9868400000D-01
     Exponent=  1.2850000000D-01 Coefficients=  3.9538900000D-01
 S 1 1.00
     Exponent=  8.8280000000D+00 Coefficients=  1.0000000000D+00
 S 1 1.00
     Exponent=  3.4740000000D+00 Coefficients=  1.0000000000D+00
 S 1 1.00
     Exponent=  9.0590000000D-01 Coefficients=  1.0000000000D+00
 S 1 1.00
     Exponent=  1.2850000000D-01 Coefficients=  1.0000000000D+00
 P 5 1.00
     Exponent=  1.8710000000D+01 Coefficients=  1.4031000000D-02
     Exponent=  4.1330000000D+00 Coefficients=  8.6866000000D-02
     Exponent=  1.2000000000D+00 Coefficients=  2.9021600000D-01
     Exponent=  3.8270000000D-01 Coefficients=  5.0100800000D-01
     Exponent=  1.2090000000D-01 Coefficients=  3.4340600000D-01
 P 1 1.00
     Exponent=  2.1552000000D+01 Coefficients=  1.0000000000D+00
 P 1 1.00
     Exponent=  5.4420000000D+00 Coefficients=  1.0000000000D+00
 P 1 1.00
     Exponent=  3.8270000000D-01 Coefficients=  1.0000000000D+00
 P 1 1.00
     Exponent=  1.2090000000D-01 Coefficients=  1.0000000000D+00
 D 1 1.00
     Exponent=  4.9500000000D+00 Coefficients=  1.0000000000D+00
 D 1 1.00
     Exponent=  1.0970000000D+00 Coefficients=  1.0000000000D+00
 D 1 1.00
     Exponent=  3.1800000000D-01 Coefficients=  1.0000000000D+00
 F 1 1.00
     Exponent=  7.6100000000D-01 Coefficients=  1.0000000000D+00
 ****
 Centers:       6
 S 10 1.00
     Exponent=  1.1420000000D+04 Coefficients=  5.2300000000D-04
     Exponent=  1.7120000000D+03 Coefficients=  4.0450000000D-03
     Exponent=  3.8930000000D+02 Coefficients=  2.0775000000D-02
     Exponent=  1.1000000000D+02 Coefficients=  8.0727000000D-02
     Exponent=  3.5570000000D+01 Coefficients=  2.3307400000D-01
     Exponent=  1.2540000000D+01 Coefficients=  4.3350100000D-01
     Exponent=  4.6440000000D+00 Coefficients=  3.4747200000D-01
     Exponent=  1.2930000000D+00 Coefficients=  4.1262000000D-02
     Exponent=  5.1180000000D-01 Coefficients= -8.5080000000D-03
     Exponent=  1.7870000000D-01 Coefficients=  2.3840000000D-03
 S 10 1.00
     Exponent=  1.1420000000D+04 Coefficients= -1.1500000000D-04
     Exponent=  1.7120000000D+03 Coefficients= -8.9500000000D-04
     Exponent=  3.8930000000D+02 Coefficients= -4.6240000000D-03
     Exponent=  1.1000000000D+02 Coefficients= -1.8528000000D-02
     Exponent=  3.5570000000D+01 Coefficients= -5.7339000000D-02
     Exponent=  1.2540000000D+01 Coefficients= -1.3207600000D-01
     Exponent=  4.6440000000D+00 Coefficients= -1.7251000000D-01
     Exponent=  1.2930000000D+00 Coefficients=  1.5181400000D-01
     Exponent=  5.1180000000D-01 Coefficients=  5.9994400000D-01
     Exponent=  1.7870000000D-01 Coefficients=  3.8746200000D-01
 S 1 1.00
     Exponent=  1.1807000000D+01 Coefficients=  1.0000000000D+00
 S 1 1.00
     Exponent=  4.7330000000D+00 Coefficients=  1.0000000000D+00
 S 1 1.00
     Exponent=  1.2930000000D+00 Coefficients=  1.0000000000D+00
 S 1 1.00
     Exponent=  1.7870000000D-01 Coefficients=  1.0000000000D+00
 P 5 1.00
     Exponent=  2.6630000000D+01 Coefficients=  1.4670000000D-02
     Exponent=  5.9480000000D+00 Coefficients=  9.1764000000D-02
     Exponent=  1.7420000000D+00 Coefficients=  2.9868300000D-01
     Exponent=  5.5500000000D-01 Coefficients=  4.9848700000D-01
     Exponent=  1.7250000000D-01 Coefficients=  3.3702300000D-01
 P 1 1.00
     Exponent=  2.9818000000D+01 Coefficients=  1.0000000000D+00
 P 1 1.00
     Exponent=  7.7430000000D+00 Coefficients=  1.0000000000D+00
 P 1 1.00
     Exponent=  5.5500000000D-01 Coefficients=  1.0000000000D+00
 P 1 1.00
     Exponent=  1.7250000000D-01 Coefficients=  1.0000000000D+00
 D 1 1.00
     Exponent=  7.3520000000D+00 Coefficients=  1.0000000000D+00
 D 1 1.00
     Exponent=  1.6540000000D+00 Coefficients=  1.0000000000D+00
 D 1 1.00
     Exponent=  4.6900000000D-01 Coefficients=  1.0000000000D+00
 F 1 1.00
     Exponent=  1.0930000000D+00 Coefficients=  1.0000000000D+00
 ****
 Centers:       2      3
 S 10 1.00
     Exponent=  1.5330000000D+04 Coefficients=  5.0800000000D-04
     Exponent=  2.2990000000D+03 Coefficients=  3.9290000000D-03
     Exponent=  5.2240000000D+02 Coefficients=  2.0243000000D-02
     Exponent=  1.4730000000D+02 Coefficients=  7.9181000000D-02
     Exponent=  4.7550000000D+01 Coefficients=  2.3068700000D-01
     Exponent=  1.6760000000D+01 Coefficients=  4.3311800000D-01
     Exponent=  6.2070000000D+00 Coefficients=  3.5026000000D-01
     Exponent=  1.7520000000D+00 Coefficients=  4.2728000000D-02
     Exponent=  6.8820000000D-01 Coefficients= -8.1540000000D-03
     Exponent=  2.3840000000D-01 Coefficients=  2.3810000000D-03
 S 10 1.00
     Exponent=  1.5330000000D+04 Coefficients= -1.1500000000D-04
     Exponent=  2.2990000000D+03 Coefficients= -8.9500000000D-04
     Exponent=  5.2240000000D+02 Coefficients= -4.6360000000D-03
     Exponent=  1.4730000000D+02 Coefficients= -1.8724000000D-02
     Exponent=  4.7550000000D+01 Coefficients= -5.8463000000D-02
     Exponent=  1.6760000000D+01 Coefficients= -1.3646300000D-01
     Exponent=  6.2070000000D+00 Coefficients= -1.7574000000D-01
     Exponent=  1.7520000000D+00 Coefficients=  1.6093400000D-01
     Exponent=  6.8820000000D-01 Coefficients=  6.0341800000D-01
     Exponent=  2.3840000000D-01 Coefficients=  3.7876500000D-01
 S 1 1.00
     Exponent=  1.5381000000D+01 Coefficients=  1.0000000000D+00
 S 1 1.00
     Exponent=  6.2450000000D+00 Coefficients=  1.0000000000D+00
 S 1 1.00
     Exponent=  1.7520000000D+00 Coefficients=  1.0000000000D+00
 S 1 1.00
     Exponent=  2.3840000000D-01 Coefficients=  1.0000000000D+00
 P 5 1.00
     Exponent=  3.4460000000D+01 Coefficients=  1.5928000000D-02
     Exponent=  7.7490000000D+00 Coefficients=  9.9740000000D-02
     Exponent=  2.2800000000D+00 Coefficients=  3.1049200000D-01
     Exponent=  7.1560000000D-01 Coefficients=  4.9102600000D-01
     Exponent=  2.1400000000D-01 Coefficients=  3.3633700000D-01
 P 1 1.00
     Exponent=  3.8484000000D+01 Coefficients=  1.0000000000D+00
 P 1 1.00
     Exponent=  1.0216000000D+01 Coefficients=  1.0000000000D+00
 P 1 1.00
     Exponent=  7.1560000000D-01 Coefficients=  1.0000000000D+00
 P 1 1.00
     Exponent=  2.1400000000D-01 Coefficients=  1.0000000000D+00
 D 1 1.00
     Exponent=  1.0238000000D+01 Coefficients=  1.0000000000D+00
 D 1 1.00
     Exponent=  2.3140000000D+00 Coefficients=  1.0000000000D+00
 D 1 1.00
     Exponent=  6.4500000000D-01 Coefficients=  1.0000000000D+00
 F 1 1.00
     Exponent=  1.4280000000D+00 Coefficients=  1.0000000000D+00
 ****
 Ernie: Thresh=  0.10000D-02 Tol=  0.10000D-05 Strict=F.
 Ernie:  35 primitive shells out of 235 were deleted.
 There are   320 symmetry adapted cartesian basis functions of A   symmetry.
 There are   285 symmetry adapted basis functions of A   symmetry.
   285 basis functions,   455 primitive gaussians,   320 cartesian basis functions
    20 alpha electrons       20 beta electrons
       nuclear repulsion energy       180.5919126595 Hartrees.
 IExCor=    0 DFT=F Ex=HF Corr=None ExCW=0 ScaHFX=  1.000000
 ScaDFX=  1.000000  1.000000  1.000000  1.000000 ScalE2=  1.000000  1.000000
 IRadAn=      5 IRanWt=     -1 IRanGd=            0 ICorTp=0 IEmpDi=  4
 NAtoms=   10 NActive=   10 NUniq=   10 SFac= 1.00D+00 NAtFMM=   60 NAOKFM=F Big=F
 Integral buffers will be    131072 words long.
 Raffenetti 1 integral format.
 Two-electron integral symmetry is turned on.
 Leave Link  301 at Thu Apr 15 19:27:21 2021, MaxMem= 13421772800 cpu:               9.2 elap:               0.2
 (Enter /home/hexuye/G16_1123/data2/software/Gaussian/g16_from_xuruiqin/g16/l302.exe)
 NPDir=0 NMtPBC=     1 NCelOv=     1 NCel=       1 NClECP=     1 NCelD=      1
         NCelK=      1 NCelE2=     1 NClLst=     1 CellRange=     0.0.
 One-electron integrals computed using PRISM.
 One-electron integral symmetry used in STVInt
 NBasis=   285 RedAO= T EigKep=  4.85D-04  NBF=   285
 NBsUse=   285 1.00D-06 EigRej= -1.00D+00 NBFU=   285
 Leave Link  302 at Thu Apr 15 19:27:22 2021, MaxMem= 13421772800 cpu:              64.6 elap:               1.1
 (Enter /home/hexuye/G16_1123/data2/software/Gaussian/g16_from_xuruiqin/g16/l303.exe)
 DipDrv:  MaxL=1.
 Leave Link  303 at Thu Apr 15 19:27:23 2021, MaxMem= 13421772800 cpu:               7.5 elap:               0.2
 (Enter /home/hexuye/G16_1123/data2/software/Gaussian/g16_from_xuruiqin/g16/l401.exe)
 ExpMin= 1.03D-01 ExpMax= 1.53D+04 ExpMxC= 5.22D+02 IAcc=3 IRadAn=         5 AccDes= 0.00D+00
 Harris functional with IExCor=  205 and IRadAn=       5 diagonalized for initial guess.
 HarFok:  IExCor=  205 AccDes= 0.00D+00 IRadAn=         5 IDoV= 1 UseB2=F ITyADJ=14
 ICtDFT=  3500011 ScaDFX=  1.000000  1.000000  1.000000  1.000000
 FoFCou: FMM=F IPFlag=           0 FMFlag=      100000 FMFlg1=           0
         NFxFlg=           0 DoJE=T BraDBF=F KetDBF=T FulRan=T
         wScrn=  0.000000 ICntrl=       500 IOpCl=  0 I1Cent=   200000004 NGrid=           0
         NMat0=    1 NMatS0=      1 NMatT0=    0 NMatD0=    1 NMtDS0=    0 NMtDT0=    0
 Petite list used in FoFCou.
 Harris En= -283.228460711830    
 JPrj=0 DoOrth=F DoCkMO=F.
 Leave Link  401 at Thu Apr 15 19:27:23 2021, MaxMem= 13421772800 cpu:              45.1 elap:               0.8
 (Enter /home/hexuye/G16_1123/data2/software/Gaussian/g16_from_xuruiqin/g16/l502.exe)
 Keep R1 ints in memory in canonical form, NReq=863057450.
 FoFCou: FMM=F IPFlag=           0 FMFlag=           0 FMFlg1=           0
         NFxFlg=           0 DoJE=F BraDBF=F KetDBF=F FulRan=T
         wScrn=  0.000000 ICntrl=       600 IOpCl=  0 I1Cent=           0 NGrid=           0
         NMat0=    1 NMatS0=  40755 NMatT0=    0 NMatD0=    1 NMtDS0=    0 NMtDT0=    0
 Symmetry not used in FoFCou.
 Two-electron integral symmetry not used.
 Closed shell SCF:
 Using DIIS extrapolation, IDIIS=  1040.
 NGot= 13421772800 LenX= 12591039114 LenY= 12590936273
 Requested convergence on RMS density matrix=1.00D-08 within 128 cycles.
 Requested convergence on MAX density matrix=1.00D-06.
 Requested convergence on             energy=1.00D-06.
 No special actions if energy rises.

 Cycle   1  Pass 1  IDiag  1:
 E= -282.701519229987    
 DIIS: error= 3.62D-02 at cycle   1 NSaved=   1.
 NSaved= 1 IEnMin= 1 EnMin= -282.701519229987     IErMin= 1 ErrMin= 3.62D-02
 ErrMax= 3.62D-02  0.00D+00 EMaxC= 1.00D-01 BMatC= 6.76D-01 BMatP= 6.76D-01
 IDIUse=3 WtCom= 6.38D-01 WtEn= 3.62D-01
 Coeff-Com:  0.100D+01
 Coeff-En:   0.100D+01
 Coeff:      0.100D+01
 Gap=     0.521 Goal=   None    Shift=    0.000
 GapD=    0.521 DampG=2.000 DampE=0.500 DampFc=1.0000 IDamp=-1.
 RMSDP=4.11D-03 MaxDP=2.88D-01              OVMax= 1.16D-01

 Cycle   2  Pass 1  IDiag  1:
 E= -282.892503411158     Delta-E=       -0.190984181172 Rises=F Damp=F
 DIIS: error= 1.35D-02 at cycle   2 NSaved=   2.
 NSaved= 2 IEnMin= 2 EnMin= -282.892503411158     IErMin= 2 ErrMin= 1.35D-02
 ErrMax= 1.35D-02  0.00D+00 EMaxC= 1.00D-01 BMatC= 7.91D-02 BMatP= 6.76D-01
 IDIUse=3 WtCom= 8.65D-01 WtEn= 1.35D-01
 Coeff-Com:  0.176D+00 0.824D+00
 Coeff-En:   0.000D+00 0.100D+01
 Coeff:      0.153D+00 0.847D+00
 Gap=     0.566 Goal=   None    Shift=    0.000
 RMSDP=1.52D-03 MaxDP=1.18D-01 DE=-1.91D-01 OVMax= 5.23D-02

 Cycle   3  Pass 1  IDiag  1:
 E= -282.937321637593     Delta-E=       -0.044818226435 Rises=F Damp=F
 DIIS: error= 6.79D-03 at cycle   3 NSaved=   3.
 NSaved= 3 IEnMin= 3 EnMin= -282.937321637593     IErMin= 3 ErrMin= 6.79D-03
 ErrMax= 6.79D-03  0.00D+00 EMaxC= 1.00D-01 BMatC= 1.15D-02 BMatP= 7.91D-02
 IDIUse=3 WtCom= 9.32D-01 WtEn= 6.79D-02
 Coeff-Com: -0.257D-01 0.247D+00 0.779D+00
 Coeff-En:   0.000D+00 0.000D+00 0.100D+01
 Coeff:     -0.240D-01 0.230D+00 0.794D+00
 Gap=     0.535 Goal=   None    Shift=    0.000
 RMSDP=4.25D-04 MaxDP=4.87D-02 DE=-4.48D-02 OVMax= 2.46D-02

 Cycle   4  Pass 1  IDiag  1:
 E= -282.944477390547     Delta-E=       -0.007155752954 Rises=F Damp=F
 DIIS: error= 1.23D-03 at cycle   4 NSaved=   4.
 NSaved= 4 IEnMin= 4 EnMin= -282.944477390547     IErMin= 4 ErrMin= 1.23D-03
 ErrMax= 1.23D-03  0.00D+00 EMaxC= 1.00D-01 BMatC= 3.73D-04 BMatP= 1.15D-02
 IDIUse=3 WtCom= 9.88D-01 WtEn= 1.23D-02
 Coeff-Com: -0.102D-01 0.521D-01 0.241D+00 0.717D+00
 Coeff-En:   0.000D+00 0.000D+00 0.000D+00 0.100D+01
 Coeff:     -0.101D-01 0.515D-01 0.238D+00 0.721D+00
 Gap=     0.533 Goal=   None    Shift=    0.000
 RMSDP=9.04D-05 MaxDP=7.88D-03 DE=-7.16D-03 OVMax= 4.51D-03

 Cycle   5  Pass 1  IDiag  1:
 E= -282.944787284043     Delta-E=       -0.000309893496 Rises=F Damp=F
 DIIS: error= 6.01D-04 at cycle   5 NSaved=   5.
 NSaved= 5 IEnMin= 5 EnMin= -282.944787284043     IErMin= 5 ErrMin= 6.01D-04
 ErrMax= 6.01D-04  0.00D+00 EMaxC= 1.00D-01 BMatC= 2.90D-05 BMatP= 3.73D-04
 IDIUse=3 WtCom= 9.94D-01 WtEn= 6.01D-03
 Coeff-Com:  0.197D-02-0.232D-01-0.714D-01 0.739D-01 0.102D+01
 Coeff-En:   0.000D+00 0.000D+00 0.000D+00 0.000D+00 0.100D+01
 Coeff:      0.196D-02-0.231D-01-0.710D-01 0.735D-01 0.102D+01
 Gap=     0.534 Goal=   None    Shift=    0.000
 RMSDP=3.88D-05 MaxDP=4.05D-03 DE=-3.10D-04 OVMax= 3.45D-03

 Cycle   6  Pass 1  IDiag  1:
 E= -282.944836720943     Delta-E=       -0.000049436900 Rises=F Damp=F
 DIIS: error= 1.06D-04 at cycle   6 NSaved=   6.
 NSaved= 6 IEnMin= 6 EnMin= -282.944836720943     IErMin= 6 ErrMin= 1.06D-04
 ErrMax= 1.06D-04  0.00D+00 EMaxC= 1.00D-01 BMatC= 4.19D-06 BMatP= 2.90D-05
 IDIUse=3 WtCom= 9.99D-01 WtEn= 1.06D-03
 Coeff-Com:  0.143D-02-0.106D-01-0.393D-01-0.723D-01 0.192D+00 0.929D+00
 Coeff-En:   0.000D+00 0.000D+00 0.000D+00 0.000D+00 0.000D+00 0.100D+01
 Coeff:      0.142D-02-0.106D-01-0.393D-01-0.722D-01 0.192D+00 0.929D+00
 Gap=     0.534 Goal=   None    Shift=    0.000
 RMSDP=1.73D-05 MaxDP=1.17D-03 DE=-4.94D-05 OVMax= 9.79D-04

 Cycle   7  Pass 1  IDiag  1:
 E= -282.944844133536     Delta-E=       -0.000007412593 Rises=F Damp=F
 DIIS: error= 4.93D-05 at cycle   7 NSaved=   7.
 NSaved= 7 IEnMin= 7 EnMin= -282.944844133536     IErMin= 7 ErrMin= 4.93D-05
 ErrMax= 4.93D-05  0.00D+00 EMaxC= 1.00D-01 BMatC= 5.00D-07 BMatP= 4.19D-06
 IDIUse=1 WtCom= 1.00D+00 WtEn= 0.00D+00
 Coeff-Com: -0.116D-03 0.195D-02 0.723D-02-0.209D-01-0.102D+00 0.416D-01
 Coeff-Com:  0.107D+01
 Coeff:     -0.116D-03 0.195D-02 0.723D-02-0.209D-01-0.102D+00 0.416D-01
 Coeff:      0.107D+01
 Gap=     0.534 Goal=   None    Shift=    0.000
 RMSDP=6.74D-06 MaxDP=7.03D-04 DE=-7.41D-06 OVMax= 6.76D-04

 Cycle   8  Pass 1  IDiag  1:
 E= -282.944845425840     Delta-E=       -0.000001292304 Rises=F Damp=F
 DIIS: error= 1.58D-05 at cycle   8 NSaved=   8.
 NSaved= 8 IEnMin= 8 EnMin= -282.944845425840     IErMin= 8 ErrMin= 1.58D-05
 ErrMax= 1.58D-05  0.00D+00 EMaxC= 1.00D-01 BMatC= 7.70D-08 BMatP= 5.00D-07
 IDIUse=1 WtCom= 1.00D+00 WtEn= 0.00D+00
 Coeff-Com: -0.196D-03 0.140D-02 0.541D-02 0.750D-02-0.118D-01-0.130D+00
 Coeff-Com: -0.112D+00 0.124D+01
 Coeff:     -0.196D-03 0.140D-02 0.541D-02 0.750D-02-0.118D-01-0.130D+00
 Coeff:     -0.112D+00 0.124D+01
 Gap=     0.534 Goal=   None    Shift=    0.000
 RMSDP=3.07D-06 MaxDP=3.01D-04 DE=-1.29D-06 OVMax= 3.08D-04

 Cycle   9  Pass 1  IDiag  1:
 E= -282.944845645159     Delta-E=       -0.000000219319 Rises=F Damp=F
 DIIS: error= 6.02D-06 at cycle   9 NSaved=   9.
 NSaved= 9 IEnMin= 9 EnMin= -282.944845645159     IErMin= 9 ErrMin= 6.02D-06
 ErrMax= 6.02D-06  0.00D+00 EMaxC= 1.00D-01 BMatC= 9.05D-09 BMatP= 7.70D-08
 IDIUse=1 WtCom= 1.00D+00 WtEn= 0.00D+00
 Coeff-Com: -0.120D-04-0.511D-04-0.154D-03 0.264D-02 0.138D-01-0.228D-01
 Coeff-Com: -0.146D+00 0.142D+00 0.101D+01
 Coeff:     -0.120D-04-0.511D-04-0.154D-03 0.264D-02 0.138D-01-0.228D-01
 Coeff:     -0.146D+00 0.142D+00 0.101D+01
 Gap=     0.534 Goal=   None    Shift=    0.000
 RMSDP=9.43D-07 MaxDP=9.07D-05 DE=-2.19D-07 OVMax= 9.29D-05

 Cycle  10  Pass 1  IDiag  1:
 E= -282.944845665899     Delta-E=       -0.000000020741 Rises=F Damp=F
 DIIS: error= 2.36D-06 at cycle  10 NSaved=  10.
 NSaved=10 IEnMin=10 EnMin= -282.944845665899     IErMin=10 ErrMin= 2.36D-06
 ErrMax= 2.36D-06  0.00D+00 EMaxC= 1.00D-01 BMatC= 1.00D-09 BMatP= 9.05D-09
 IDIUse=1 WtCom= 1.00D+00 WtEn= 0.00D+00
 Coeff-Com:  0.236D-04-0.188D-03-0.700D-03-0.111D-02 0.338D-02 0.137D-01
 Coeff-Com:  0.453D-02-0.152D+00 0.916D-01 0.104D+01
 Coeff:      0.236D-04-0.188D-03-0.700D-03-0.111D-02 0.338D-02 0.137D-01
 Coeff:      0.453D-02-0.152D+00 0.916D-01 0.104D+01
 Gap=     0.534 Goal=   None    Shift=    0.000
 RMSDP=3.01D-07 MaxDP=3.26D-05 DE=-2.07D-08 OVMax= 2.52D-05

 Cycle  11  Pass 1  IDiag  1:
 E= -282.944845668006     Delta-E=       -0.000000002107 Rises=F Damp=F
 DIIS: error= 4.99D-07 at cycle  11 NSaved=  11.
 NSaved=11 IEnMin=11 EnMin= -282.944845668006     IErMin=11 ErrMin= 4.99D-07
 ErrMax= 4.99D-07  0.00D+00 EMaxC= 1.00D-01 BMatC= 7.40D-11 BMatP= 1.00D-09
 IDIUse=1 WtCom= 1.00D+00 WtEn= 0.00D+00
 Coeff-Com:  0.337D-06 0.609D-05 0.482D-04-0.190D-03-0.938D-03 0.540D-03
 Coeff-Com:  0.110D-01 0.292D-02-0.103D+00-0.923D-01 0.118D+01
 Coeff:      0.337D-06 0.609D-05 0.482D-04-0.190D-03-0.938D-03 0.540D-03
 Coeff:      0.110D-01 0.292D-02-0.103D+00-0.923D-01 0.118D+01
 Gap=     0.534 Goal=   None    Shift=    0.000
 RMSDP=9.33D-08 MaxDP=7.49D-06 DE=-2.11D-09 OVMax= 5.55D-06

 Cycle  12  Pass 1  IDiag  1:
 E= -282.944845668169     Delta-E=       -0.000000000163 Rises=F Damp=F
 DIIS: error= 1.61D-07 at cycle  12 NSaved=  12.
 NSaved=12 IEnMin=12 EnMin= -282.944845668169     IErMin=12 ErrMin= 1.61D-07
 ErrMax= 1.61D-07  0.00D+00 EMaxC= 1.00D-01 BMatC= 3.80D-12 BMatP= 7.40D-11
 IDIUse=1 WtCom= 1.00D+00 WtEn= 0.00D+00
 Coeff-Com: -0.136D-05 0.103D-04 0.397D-04 0.656D-04-0.876D-04-0.990D-03
 Coeff-Com: -0.160D-02 0.114D-01 0.130D-03-0.613D-01-0.777D-01 0.113D+01
 Coeff:     -0.136D-05 0.103D-04 0.397D-04 0.656D-04-0.876D-04-0.990D-03
 Coeff:     -0.160D-02 0.114D-01 0.130D-03-0.613D-01-0.777D-01 0.113D+01
 Gap=     0.534 Goal=   None    Shift=    0.000
 RMSDP=2.11D-08 MaxDP=1.53D-06 DE=-1.63D-10 OVMax= 1.17D-06

 Cycle  13  Pass 1  IDiag  1:
 E= -282.944845668180     Delta-E=       -0.000000000011 Rises=F Damp=F
 DIIS: error= 2.44D-08 at cycle  13 NSaved=  13.
 NSaved=13 IEnMin=13 EnMin= -282.944845668180     IErMin=13 ErrMin= 2.44D-08
 ErrMax= 2.44D-08  0.00D+00 EMaxC= 1.00D-01 BMatC= 3.43D-13 BMatP= 3.80D-12
 IDIUse=1 WtCom= 1.00D+00 WtEn= 0.00D+00
 Coeff-Com:  0.568D-07-0.111D-05-0.602D-05 0.105D-04 0.102D-03-0.104D-04
 Coeff-Com: -0.107D-02-0.287D-03 0.876D-02 0.890D-02-0.103D+00 0.128D-01
 Coeff-Com:  0.107D+01
 Coeff:      0.568D-07-0.111D-05-0.602D-05 0.105D-04 0.102D-03-0.104D-04
 Coeff:     -0.107D-02-0.287D-03 0.876D-02 0.890D-02-0.103D+00 0.128D-01
 Coeff:      0.107D+01
 Gap=     0.534 Goal=   None    Shift=    0.000
 RMSDP=5.92D-09 MaxDP=3.91D-07 DE=-1.11D-11 OVMax= 3.22D-07

 SCF Done:  E(RHF) =  -282.944845668     A.U. after   13 cycles
            NFock= 13  Conv=0.59D-08     -V/T= 2.0010
 KE= 2.826666650023D+02 PE=-1.027723334623D+03 EE= 2.815199112935D+02
 Leave Link  502 at Thu Apr 15 19:27:46 2021, MaxMem= 13421772800 cpu:             161.6 elap:              22.8
 (Enter /home/hexuye/G16_1123/data2/software/Gaussian/g16_from_xuruiqin/g16/l801.exe)
 Windowed orbitals will be sorted by symmetry type.
 ExpMin= 1.03D-01 ExpMax= 1.53D+04 ExpMxC= 5.22D+02 IAcc=3 IRadAn=         5 AccDes= 0.00D+00
 HarFok:  IExCor=  205 AccDes= 0.00D+00 IRadAn=         5 IDoV=-2 UseB2=F ITyADJ=14
 ICtDFT= 12500011 ScaDFX=  1.000000  1.000000  1.000000  1.000000
 Largest valence mixing into a core orbital is  2.13D-04
 Largest core mixing into a valence orbital is  3.01D-05
 Range of M.O.s used for correlation:     6   285
 NBasis=   285 NAE=    20 NBE=    20 NFC=     5 NFV=     0
 NROrb=    280 NOA=    15 NOB=    15 NVA=   265 NVB=   265

 **** Warning!!: The largest alpha MO coefficient is  0.10839479D+02

 Leave Link  801 at Thu Apr 15 19:27:47 2021, MaxMem= 13421772800 cpu:              13.5 elap:               0.3
 (Enter /home/hexuye/G16_1123/data2/software/Gaussian/g16_from_xuruiqin/g16/l804.exe)
 Closed-shell transformation, MDV= 13421772800 ITran=4 ISComp=1.
 Unit  1 TFree=       2603509 TCopy=       1396831.
 Semi-Direct transformation.
 ModeAB=           4 MOrb=            15 LenV=   13419642718
 LASXX=    158941965 LTotXX=   158941965 LenRXX=   319562265
 LTotAB=   160620300 MaxLAS=   205577400 LenRXY=           0
 NonZer=   478504230 LenScr=   718274560 LnRSAI=   205577400
 LnScr1=   308805632 LExtra=           0 Total=   1552219857
 MaxDsk=          -1 SrtSym=           T ITran=            4
 DoSDTr:  NPSUse= 64
 JobTyp=0 Pass  1:  I=   1 to  15.
 (rs|ai) integrals will be sorted in core.
 Complete sort for first half transformation.
 First half transformation complete.
 Begin second half transformation for I=  10.
 Complete sort for second half transformation.
 Second half transformation complete.
 SymMOI:  orbitals are not symmetric.
 Spin components of T(2) and E(2):
     alpha-alpha T2 =       0.3539793534D-01 E2=     -0.1287402918D+00
     alpha-beta  T2 =       0.1975132205D+00 E2=     -0.7690975605D+00
     beta-beta   T2 =       0.3539793534D-01 E2=     -0.1287402918D+00
 ANorm=    0.1126192298D+01
 E2 =    -0.1026578144D+01 EUMP2 =    -0.28397142381230D+03
 Leave Link  804 at Thu Apr 15 19:28:47 2021, MaxMem= 13421772800 cpu:            3830.0 elap:              60.1
 (Enter /home/hexuye/G16_1123/data2/software/Gaussian/g16_from_xuruiqin/g16/l913.exe)
 CIDS:  MDV= 13421772800.
 Frozen-core window:  NFC=   5 NFV=   0.
 IFCWin=0 IBDFC=1 NFBD=     0     0 NFCmp=     0     0 NFFFC=     0     0
 Using DD3R+UMP44R for 1st iteration.
 Using DD4RQ for 2nd and later iterations.
 Keep R2 and R3 ints in memory in canonical form, NReq=1693573795.
 FoFCou: FMM=F IPFlag=           0 FMFlag=           0 FMFlg1=           0
         NFxFlg=           0 DoJE=F BraDBF=F KetDBF=F FulRan=T
         wScrn=  0.000000 ICntrl=       600 IOpCl=  0 I1Cent=           0 NGrid=           0
         NMat0=    1 NMatS0=  40755 NMatT0=    0 NMatD0=    1 NMtDS0=    0 NMtDT0=    0
 Symmetry not used in FoFCou.
 Two-electron integral symmetry not used.
 CIDS: In Core Option IDoMem=           1.
 CCSD(T)
 =======
 Iterations=  50 Convergence= 0.100D-06
 Produce multiple copies of IABC intergrals
 Iteration Nr.   1
 **********************
 DD1Dir will call FoFMem   1 times, MxPair=       240
 NAB=   120 NAA=     0 NBB=     0.
 MP4(R+Q)=  0.22208092D-01
 Maximum subspace dimension=  5
 A-vector RMS=  2.0278494D-03 Max=  2.0610569D-02 conv= 1.00D-05.
 RLE energy=       -1.0129684772
 E3=       -0.89549805D-02        EUMP3=      -0.28398037879D+03
 E4(DQ)=    0.14355404D-02        UMP4(DQ)=   -0.28397894325D+03
 E4(SDQ)=  -0.10034286D-01        UMP4(SDQ)=  -0.28399041308D+03
 VARIATIONAL ENERGIES WITH THE FIRST-ORDER WAVEFUNCTION:
 DE(Corr)=  -1.0127859     E(Corr)=     -283.95763157    
 NORM(A)=   0.11259335D+01
 Iteration Nr.   2
 **********************
 DD1Dir will call FoFMem   1 times, MxPair=       240
 NAB=   120 NAA=     0 NBB=     0.
 A-vector RMS=  2.8967732D-04 Max=  5.3006351D-03 conv= 1.00D-05.
 RLE energy=       -1.0408081604
 DE(Corr)=  -1.0404804     E(CORR)=     -283.98532610     Delta=-2.77D-02
 NORM(A)=   0.11352225D+01
 Iteration Nr.   3
 **********************
 DD1Dir will call FoFMem   1 times, MxPair=       240
 NAB=   120 NAA=     0 NBB=     0.
 A-vector RMS=  3.7849173D-04 Max=  4.0948920D-03 conv= 1.00D-05.
 RLE energy=       -1.0423033294
 DE(Corr)=  -1.0399864     E(CORR)=     -283.98483203     Delta= 4.94D-04
 NORM(A)=   0.11376952D+01
 Iteration Nr.   4
 **********************
 DD1Dir will call FoFMem   1 times, MxPair=       240
 NAB=   120 NAA=     0 NBB=     0.
 A-vector RMS=  6.2639838D-05 Max=  7.5547162D-04 conv= 1.00D-05.
 RLE energy=       -1.0424796011
 DE(Corr)=  -1.0422980     E(CORR)=     -283.98714370     Delta=-2.31D-03
 NORM(A)=   0.11384440D+01
 Iteration Nr.   5
 **********************
 DD1Dir will call FoFMem   1 times, MxPair=       240
 NAB=   120 NAA=     0 NBB=     0.
 A-vector RMS=  3.9510730D-05 Max=  4.7538743D-04 conv= 1.00D-05.
 RLE energy=       -1.0425946134
 DE(Corr)=  -1.0425462     E(CORR)=     -283.98739187     Delta=-2.48D-04
 NORM(A)=   0.11386891D+01
 Iteration Nr.   6
 **********************
 DD1Dir will call FoFMem   1 times, MxPair=       240
 NAB=   120 NAA=     0 NBB=     0.
 A-vector RMS=  1.0895457D-05 Max=  1.2851833D-04 conv= 1.00D-05.
 RLE energy=       -1.0425723125
 DE(Corr)=  -1.0425699     E(CORR)=     -283.98741556     Delta=-2.37D-05
 NORM(A)=   0.11387168D+01
 Iteration Nr.   7
 **********************
 DD1Dir will call FoFMem   1 times, MxPair=       240
 NAB=   120 NAA=     0 NBB=     0.
 A-vector RMS=  4.8884981D-06 Max=  8.2392587D-05 conv= 1.00D-05.
 RLE energy=       -1.0425580585
 DE(Corr)=  -1.0425712     E(CORR)=     -283.98741691     Delta=-1.34D-06
 NORM(A)=   0.11387199D+01
 Iteration Nr.   8
 **********************
 DD1Dir will call FoFMem   1 times, MxPair=       240
 NAB=   120 NAA=     0 NBB=     0.
 A-vector RMS=  1.7059175D-06 Max=  2.0110577D-05 conv= 1.00D-05.
 RLE energy=       -1.0425685289
 DE(Corr)=  -1.0425696     E(CORR)=     -283.98741524     Delta= 1.67D-06
 NORM(A)=   0.11387243D+01
 Iteration Nr.   9
 **********************
 DD1Dir will call FoFMem   1 times, MxPair=       240
 NAB=   120 NAA=     0 NBB=     0.
 A-vector RMS=  6.2518625D-07 Max=  1.1659091D-05 conv= 1.00D-05.
 RLE energy=       -1.0425683438
 DE(Corr)=  -1.0425687     E(CORR)=     -283.98741440     Delta= 8.35D-07
 NORM(A)=   0.11387247D+01
 Iteration Nr.  10
 **********************
 DD1Dir will call FoFMem   1 times, MxPair=       240
 NAB=   120 NAA=     0 NBB=     0.
 A-vector RMS=  3.0873953D-07 Max=  4.9751336D-06 conv= 1.00D-05.
 RLE energy=       -1.0425694248
 DE(Corr)=  -1.0425694     E(CORR)=     -283.98741510     Delta=-6.93D-07
 NORM(A)=   0.11387253D+01
 Iteration Nr.  11
 **********************
 DD1Dir will call FoFMem   1 times, MxPair=       240
 NAB=   120 NAA=     0 NBB=     0.
 A-vector RMS=  1.4566487D-07 Max=  2.3584005D-06 conv= 1.00D-05.
 RLE energy=       -1.0425698887
 DE(Corr)=  -1.0425697     E(CORR)=     -283.98741534     Delta=-2.47D-07
 NORM(A)=   0.11387257D+01
 Iteration Nr.  12
 **********************
 DD1Dir will call FoFMem   1 times, MxPair=       240
 NAB=   120 NAA=     0 NBB=     0.
 A-vector RMS=  7.2866282D-08 Max=  1.1562397D-06 conv= 1.00D-05.
 RLE energy=       -1.0425699429
 DE(Corr)=  -1.0425699     E(CORR)=     -283.98741554     Delta=-1.93D-07
 NORM(A)=   0.11387259D+01
 Iteration Nr.  13
 **********************
 DD1Dir will call FoFMem   1 times, MxPair=       240
 NAB=   120 NAA=     0 NBB=     0.
 A-vector RMS=  3.8465380D-08 Max=  5.6822125D-07 conv= 1.00D-05.
 RLE energy=       -1.0425699707
 DE(Corr)=  -1.0425699     E(CORR)=     -283.98741561     Delta=-7.28D-08
 NORM(A)=   0.11387260D+01
 CI/CC converged in   13 iterations to DelEn=-7.28D-08 Conv= 1.00D-07 ErrA1= 3.85D-08 Conv= 1.00D-05
 Wavefunction amplitudes converged. E(Corr)=     -283.98741561    
 Largest amplitude= 3.19D-02
 T4(AAA)= -0.13079962D-02
 T4(AAB)= -0.21576681D-01
 T5(AAA)=  0.79978475D-04
 T5(AAB)=  0.93150916D-03
 Time for triples=    84723.84 seconds.
 T4(CCSD)= -0.45769353D-01
 T5(CCSD)=  0.20229753D-02
 CCSD(T)= -0.28403116199D+03
 Discarding MO integrals.
 Leave Link  913 at Thu Apr 15 20:00:08 2021, MaxMem= 13421772800 cpu:          117445.8 elap:            1856.3
 (Enter /home/hexuye/G16_1123/data2/software/Gaussian/g16_from_xuruiqin/g16/l601.exe)
 Copying SCF densities to generalized density rwf, IOpCl= 0 IROHF=0.

 **********************************************************************

            Population analysis using the SCF Density.

 **********************************************************************

 Orbital symmetries:
       Occupied  (A) (A) (A) (A) (A) (A) (A) (A) (A) (A) (A) (A)
                 (A) (A) (A) (A) (A) (A) (A) (A)
       Virtual   (A) (A) (A) (A) (A) (A) (A) (A) (A) (A) (A) (A)
                 (A) (A) (A) (A) (A) (A) (A) (A) (A) (A) (A) (A)
                 (A) (A) (A) (A) (A) (A) (A) (A) (A) (A) (A) (A)
                 (A) (A) (A) (A) (A) (A) (A) (A) (A) (A) (A) (A)
                 (A) (A) (A) (A) (A) (A) (A) (A) (A) (A) (A) (A)
                 (A) (A) (A) (A) (A) (A) (A) (A) (A) (A) (A) (A)
                 (A) (A) (A) (A) (A) (A) (A) (A) (A) (A) (A) (A)
                 (A) (A) (A) (A) (A) (A) (A) (A) (A) (A) (A) (A)
                 (A) (A) (A) (A) (A) (A) (A) (A) (A) (A) (A) (A)
                 (A) (A) (A) (A) (A) (A) (A) (A) (A) (A) (A) (A)
                 (A) (A) (A) (A) (A) (A) (A) (A) (A) (A) (A) (A)
                 (A) (A) (A) (A) (A) (A) (A) (A) (A) (A) (A) (A)
                 (A) (A) (A) (A) (A) (A) (A) (A) (A) (A) (A) (A)
                 (A) (A) (A) (A) (A) (A) (A) (A) (A) (A) (A) (A)
                 (A) (A) (A) (A) (A) (A) (A) (A) (A) (A) (A) (A)
                 (A) (A) (A) (A) (A) (A) (A) (A) (A) (A) (A) (A)
                 (A) (A) (A) (A) (A) (A) (A) (A) (A) (A) (A) (A)
                 (A) (A) (A) (A) (A) (A) (A) (A) (A) (A) (A) (A)
                 (A) (A) (A) (A) (A) (A) (A) (A) (A) (A) (A) (A)
                 (A) (A) (A) (A) (A) (A) (A) (A) (A) (A) (A) (A)
                 (A) (A) (A) (A) (A) (A) (A) (A) (A) (A) (A) (A)
                 (A) (A) (A) (A) (A) (A) (A) (A) (A) (A) (A) (A)
                 (A)
 The electronic state is 1-A.
 Alpha  occ. eigenvalues --  -20.61273 -20.54607 -15.55074 -11.38426 -11.27520
 Alpha  occ. eigenvalues --   -1.46950  -1.36415  -1.19681  -0.97618  -0.82632
 Alpha  occ. eigenvalues --   -0.71437  -0.68805  -0.66872  -0.64698  -0.59893
 Alpha  occ. eigenvalues --   -0.58266  -0.55678  -0.48703  -0.45764  -0.40529
 Alpha virt. eigenvalues --    0.12861   0.15765   0.17838   0.18133   0.20277
 Alpha virt. eigenvalues --    0.23317   0.31362   0.33204   0.35446   0.42085
 Alpha virt. eigenvalues --    0.45759   0.46276   0.46713   0.51221   0.53566
 Alpha virt. eigenvalues --    0.55208   0.57060   0.58691   0.62294   0.63397
 Alpha virt. eigenvalues --    0.65707   0.67266   0.69837   0.70866   0.72406
 Alpha virt. eigenvalues --    0.75645   0.76077   0.79557   0.80750   0.81844
 Alpha virt. eigenvalues --    0.85924   0.88593   0.91269   0.93228   0.97323
 Alpha virt. eigenvalues --    1.03517   1.04727   1.06930   1.12685   1.13732
 Alpha virt. eigenvalues --    1.16456   1.21425   1.24389   1.27954   1.29456
 Alpha virt. eigenvalues --    1.30726   1.36009   1.38353   1.39322   1.41898
 Alpha virt. eigenvalues --    1.43087   1.46360   1.49102   1.52205   1.52944
 Alpha virt. eigenvalues --    1.55193   1.60548   1.61437   1.66896   1.79627
 Alpha virt. eigenvalues --    1.81550   1.84724   1.86796   1.89571   1.93888
 Alpha virt. eigenvalues --    1.95633   2.03000   2.04030   2.21407   2.27050
 Alpha virt. eigenvalues --    2.27266   2.30552   2.31134   2.36061   2.42281
 Alpha virt. eigenvalues --    2.45908   2.57606   2.61467   2.64988   2.74959
 Alpha virt. eigenvalues --    2.75226   2.80162   2.81146   2.83847   2.93175
 Alpha virt. eigenvalues --    2.96875   3.03441   3.05449   3.12285   3.15360
 Alpha virt. eigenvalues --    3.18511   3.20949   3.24292   3.25265   3.28083
 Alpha virt. eigenvalues --    3.31786   3.35072   3.37653   3.38175   3.42245
 Alpha virt. eigenvalues --    3.47301   3.48444   3.52315   3.54360   3.59379
 Alpha virt. eigenvalues --    3.60525   3.61182   3.63891   3.65831   3.69074
 Alpha virt. eigenvalues --    3.72329   3.75741   3.78027   3.80380   3.81141
 Alpha virt. eigenvalues --    3.83840   3.86411   3.90421   3.96030   3.98999
 Alpha virt. eigenvalues --    4.00238   4.02393   4.04142   4.05793   4.09706
 Alpha virt. eigenvalues --    4.16750   4.19843   4.20956   4.23584   4.25963
 Alpha virt. eigenvalues --    4.28210   4.33059   4.37092   4.37916   4.39527
 Alpha virt. eigenvalues --    4.40875   4.47434   4.49590   4.53674   4.58272
 Alpha virt. eigenvalues --    4.59808   4.62466   4.67214   4.69250   4.75546
 Alpha virt. eigenvalues --    4.77118   4.81585   4.95969   5.00392   5.02074
 Alpha virt. eigenvalues --    5.07106   5.14254   5.19104   5.22400   5.33369
 Alpha virt. eigenvalues --    5.36146   5.42596   5.44043   5.48742   5.51272
 Alpha virt. eigenvalues --    5.55010   5.61695   5.62875   5.69054   5.70474
 Alpha virt. eigenvalues --    5.76200   5.84437   5.86592   5.97514   6.01848
 Alpha virt. eigenvalues --    6.03712   6.06029   6.10524   6.13125   6.20967
 Alpha virt. eigenvalues --    6.23250   6.29071   6.38074   6.41134   6.54047
 Alpha virt. eigenvalues --    6.57698   6.69267   6.81200   6.85585   6.93217
 Alpha virt. eigenvalues --    6.96788   7.03069   7.06042   7.18524   7.20522
 Alpha virt. eigenvalues --    7.23804   7.25861   7.36290   7.37275   7.44111
 Alpha virt. eigenvalues --    7.47780   7.64138   7.82291   8.00699   8.32283
 Alpha virt. eigenvalues --   10.44627  11.33784  11.39280  11.46239  11.61098
 Alpha virt. eigenvalues --   11.90086  13.21798  13.49183  14.76335  14.87586
 Alpha virt. eigenvalues --   14.96406  15.04758  15.06677  15.07129  15.36431
 Alpha virt. eigenvalues --   15.57262  15.67551  15.68374  15.90020  16.08775
 Alpha virt. eigenvalues --   16.24393  17.80504  19.05742  19.16386  19.38259
 Alpha virt. eigenvalues --   19.64505  20.17508  20.28478  21.97010  21.97334
 Alpha virt. eigenvalues --   22.04462  22.36952  22.59425  22.86319  23.16083
 Alpha virt. eigenvalues --   30.04886  30.09193  30.09694  30.17402  30.20771
 Alpha virt. eigenvalues --   30.24009  30.30144  30.37329  30.50657  30.58946
 Alpha virt. eigenvalues --   50.33715  50.92963  51.05240  51.10941  51.20650
 Alpha virt. eigenvalues --   51.30831  62.72872  63.28022  70.36932  70.79186
 Alpha virt. eigenvalues --   71.01617  83.53791  90.43228  90.52442  90.67763
 Alpha virt. eigenvalues --   90.88462  91.30754  91.40682 107.99020 108.30313
          Condensed to atoms (all electrons):
               1          2          3          4          5          6
     1  C    4.105184   0.410839   0.746321  -0.031894   0.355458  -0.030334
     2  O    0.410839   7.787612  -0.086923   0.330991  -0.080456  -0.006463
     3  O    0.746321  -0.086923   7.860956   0.007412  -0.082065   0.002718
     4  H   -0.031894   0.330991   0.007412   0.439924   0.013274  -0.000813
     5  C    0.355458  -0.080456  -0.082065   0.013274   4.703136   0.319014
     6  N   -0.030334  -0.006463   0.002718  -0.000813   0.319014   6.331010
     7  H   -0.035079   0.000739   0.001663  -0.000882   0.411208  -0.060875
     8  H   -0.033110   0.003493   0.006023  -0.000569   0.419089  -0.026506
     9  H    0.005189  -0.000045  -0.000295   0.000112  -0.027908   0.387846
    10  H   -0.007530   0.009614   0.000253  -0.000767  -0.034885   0.396246
               7          8          9         10
     1  C   -0.035079  -0.033110   0.005189  -0.007530
     2  O    0.000739   0.003493  -0.000045   0.009614
     3  O    0.001663   0.006023  -0.000295   0.000253
     4  H   -0.000882  -0.000569   0.000112  -0.000767
     5  C    0.411208   0.419089  -0.027908  -0.034885
     6  N   -0.060875  -0.026506   0.387846   0.396246
     7  H    0.676617  -0.030873  -0.006152  -0.004379
     8  H   -0.030873   0.569001  -0.005426   0.006797
     9  H   -0.006152  -0.005426   0.571911  -0.033369
    10  H   -0.004379   0.006797  -0.033369   0.541238
 Mulliken charges:
               1
     1  C    0.514955
     2  O   -0.369402
     3  O   -0.456062
     4  H    0.243211
     5  C    0.004134
     6  N   -0.311845
     7  H    0.048013
     8  H    0.092080
     9  H    0.108135
    10  H    0.126781
 Sum of Mulliken charges =  -0.00000
 Mulliken charges with hydrogens summed into heavy atoms:
               1
     1  C    0.514955
     2  O   -0.126191
     3  O   -0.456062
     5  C    0.144227
     6  N   -0.076929
 Electronic spatial extent (au):  <R**2>=            409.4578
 Charge=             -0.0000 electrons
 Dipole moment (field-independent basis, Debye):
    X=             -1.8656    Y=              1.1354    Z=              1.5695  Tot=              2.6894
 Quadrupole moment (field-independent basis, Debye-Ang):
   XX=            -28.1247   YY=            -28.4285   ZZ=            -30.7164
   XY=              6.0939   XZ=             -1.8941   YZ=             -0.2860
 Traceless Quadrupole moment (field-independent basis, Debye-Ang):
   XX=              0.9652   YY=              0.6614   ZZ=             -1.6265
   XY=              6.0939   XZ=             -1.8941   YZ=             -0.2860
 Octapole moment (field-independent basis, Debye-Ang**2):
  XXX=            -11.3110  YYY=              6.8691  ZZZ=              2.2382  XYY=              0.6727
  XXY=             11.6132  XXZ=              4.7152  XZZ=              4.2142  YZZ=              0.0628
  YYZ=             -0.5530  XYZ=             -2.0023
 Hexadecapole moment (field-independent basis, Debye-Ang**3):
 XXXX=           -275.1673 YYYY=           -128.5143 ZZZZ=            -42.0213 XXXY=             24.0209
 XXXZ=             -5.0201 YYYX=             10.3553 YYYZ=              1.5080 ZZZX=             -4.4419
 ZZZY=              0.4175 XXYY=            -62.6414 XXZZ=            -64.8546 YYZZ=            -30.3270
 XXYZ=              0.6021 YYXZ=             -0.6875 ZZXY=              1.3244
 N-N= 1.805919126595D+02 E-N=-1.027723332549D+03  KE= 2.826666650023D+02
 Leave Link  601 at Thu Apr 15 20:00:21 2021, MaxMem= 13421772800 cpu:              31.0 elap:              11.6
 (Enter /home/hexuye/G16_1123/data2/software/Gaussian/g16_from_xuruiqin/g16/l9999.exe)
 Unable to Open any file for archive entry.
 1\1\GINC-CU38\SP\RCCSD(T)-FC\Gen\C2H5N1O2\ROOT\15-Apr-2021\0\\#p CCSD(
 T)/gen\\start best geom PCCP paper\\0,1\C\O,1,1.3486\O,1,1.20239,2,122
 .85413\H,2,0.965152,1,106.77622,3,0.858776,0\C,1,1.50625,3,125.06726,2
 ,-176.8326,0\N,5,1.45443,1,111.81084,3,-146.04703,0\H,5,1.09773,1,105.
 69489,3,88.80239,0\H,5,1.08654,1,106.9966,3,-25.78313,0\H,6,1.00989,5,
 110.58167,1,-178.47161,0\H,6,1.01063,5,111.13985,1,-58.48891,0\\Versio
 n=ES64L-G16RevC.01\State=1-A\HF=-282.9448457\MP2=-283.9714238\MP3=-283
 .9803788\MP4D=-284.0011513\MP4DQ=-283.9789433\MP4SDQ=-283.9904131\CCSD
 =-283.9874156\CCSD(T)=-284.031162\RMSD=5.915e-09\PG=C01 [X(C2H5N1O2)]\
 \@
 The archive entry for this job was punched.


 HOW IS IT THAT THE SKY FEEDS THE STARS?

                           -- LUCRETIUS
 Job cpu time:       1 days  9 hours 47 minutes 26.7 seconds.
 Elapsed time:       0 days  0 hours 32 minutes 34.1 seconds.
 File lengths (MBytes):  RWF=  64219 Int=      0 D2E=      0 Chk=      7 Scr=      2
 Normal termination of Gaussian 16 at Thu Apr 15 20:00:27 2021.
