 Entering Gaussian System, Link 0=g16
 Input=gtt_Best_geom_CCSDT_cc-pwCVTZ-ae.gjf
 Output=gtt_Best_geom_CCSDT_cc-pwCVTZ-ae.log
 AtFile(1): /home/hexuye/glycine/cc-pwcvtz.0.gbs
            H     0
            S    5   1.00
                  3.387000D+01           6.068000D-03
                  5.095000D+00           4.530800D-02
                  1.159000D+00           2.028220D-01
                  3.258000D-01           5.039030D-01
                  1.027000D-01           3.834210D-01
            S    1   1.00
                  3.258000D-01           1.000000D+00
            S    1   1.00
                  1.027000D-01           1.000000D+00
            P    1   1.00
                  1.407000D+00           1.000000D+00
            P    1   1.00
                  3.880000D-01           1.000000D+00
            D    1   1.00
                  1.057000D+00           1.0000000
            ****
            C     0
            S    10   1.00
               8236.0000000              0.0005310
               1235.0000000              0.0041080
                280.8000000              0.0210870
                 79.2700000              0.0818530
                 25.5900000              0.2348170
                  8.9970000              0.4344010
                  3.3190000              0.3461290
                  0.9059000              0.0393780
                  0.3643000             -0.0089830
                  0.1285000              0.0023850
            S    10   1.00
               8236.0000000             -0.0001130
               1235.0000000             -0.0008780
                280.8000000             -0.0045400
                 79.2700000             -0.0181330
                 25.5900000             -0.0557600
                  8.9970000             -0.1268950
                  3.3190000             -0.1703520
                  0.9059000              0.1403820
                  0.3643000              0.5986840
                  0.1285000              0.3953890
            S    1   1.00
                  8.828000               1.000000
            S    1   1.00
                  3.474000               1.000000
            S    1   1.00
                  0.9059000              1.0000000
            S    1   1.00
                  0.1285000              1.0000000
            P    5   1.00
                 18.7100000              0.0140310
                  4.1330000              0.0868660
                  1.2000000              0.2902160
                  0.3827000              0.5010080
                  0.1209000              0.3434060
            P    1   1.00
                 21.55200                1.000000
            P    1   1.00
                  5.442000               1.000000
            P    1   1.00
                  0.3827000              1.0000000
            P    1   1.00
                  0.1209000              1.0000000
            D    1   1.00
                  4.950000               1.000000
            D    1   1.00
                  1.0970000              1.0000000
            D    1   1.00
                  0.3180000              1.0000000
            F    1   1.00
                  0.7610000              1.0000000
            ****
            N     0
            S    10   1.00
              11420.0000000              0.0005230
               1712.0000000              0.0040450
                389.3000000              0.0207750
                110.0000000              0.0807270
                 35.5700000              0.2330740
                 12.5400000              0.4335010
                  4.6440000              0.3474720
                  1.2930000              0.0412620
                  0.5118000             -0.0085080
                  0.1787000              0.0023840
            S    10   1.00
              11420.0000000             -0.0001150
               1712.0000000             -0.0008950
                389.3000000             -0.0046240
                110.0000000             -0.0185280
                 35.5700000             -0.0573390
                 12.5400000             -0.1320760
                  4.6440000             -0.1725100
                  1.2930000              0.1518140
                  0.5118000              0.5999440
                  0.1787000              0.3874620
            S    1   1.00
                 11.80700                1.000000
            S    1   1.00
                  4.733000               1.000000
            S    1   1.00
                  1.2930000              1.0000000
            S    1   1.00
                  0.1787000              1.0000000
            P    5   1.00
                 26.6300000              0.0146700
                  5.9480000              0.0917640
                  1.7420000              0.2986830
                  0.5550000              0.4984870
                  0.1725000              0.3370230
            P    1   1.00
                 29.81800                1.000000
            P    1   1.00
                  7.743000               1.000000
            P    1   1.00
                  0.5550000              1.0000000
            P    1   1.00
                  0.1725000              1.0000000
            D    1   1.00
                  7.352000               1.000000
            D    1   1.00
                  1.6540000              1.0000000
            D    1   1.00
                  0.4690000              1.0000000
            F    1   1.00
                  1.0930000              1.0000000
            ****
            O     0
            S    10   1.00
              15330.0000000              0.0005080
               2299.0000000              0.0039290
                522.4000000              0.0202430
                147.3000000              0.0791810
                 47.5500000              0.2306870
                 16.7600000              0.4331180
                  6.2070000              0.3502600
                  1.7520000              0.0427280
                  0.6882000             -0.0081540
                  0.2384000              0.0023810
            S    10   1.00
              15330.0000000             -0.0001150
               2299.0000000             -0.0008950
                522.4000000             -0.0046360
                147.3000000             -0.0187240
                 47.5500000             -0.0584630
                 16.7600000             -0.1364630
                  6.2070000             -0.1757400
                  1.7520000              0.1609340
                  0.6882000              0.6034180
                  0.2384000              0.3787650
            S    1   1.00
                 15.38100                1.000000
            S    1   1.00
                  6.245000               1.000000
            S    1   1.00
                  1.7520000              1.0000000
            S    1   1.00
                  0.2384000              1.0000000
            P    5   1.00
                 34.4600000              0.0159280
                  7.7490000              0.0997400
                  2.2800000              0.3104920
                  0.7156000              0.4910260
                  0.2140000              0.3363370
            P    1   1.00
                 38.48400                1.000000
            P    1   1.00
                 10.21600                1.000000
            P    1   1.00
                  0.7156000              1.0000000
            P    1   1.00
                  0.2140000              1.0000000
            D    1   1.00
                 10.23800                1.000000
            D    1   1.00
                  2.3140000              1.0000000
            D    1   1.00
                  0.6450000              1.0000000
            F    1   1.00
                  1.4280000              1.0000000
            ****
 Initial command:
 /home/hexuye/G16_1123/data2/software/Gaussian/g16_from_xuruiqin/g16/l1.exe "/home/hexuye/scratch/Gau-267637.inp" -scrdir="/home/hexuye/scratch/"
 Entering Link 1 = /home/hexuye/G16_1123/data2/software/Gaussian/g16_from_xuruiqin/g16/l1.exe PID=    267638.
  
 Copyright (c) 1988-2019, Gaussian, Inc.  All Rights Reserved.
  
 This is part of the Gaussian(R) 16 program.  It is based on
 the Gaussian(R) 09 system (copyright 2009, Gaussian, Inc.),
 the Gaussian(R) 03 system (copyright 2003, Gaussian, Inc.),
 the Gaussian(R) 98 system (copyright 1998, Gaussian, Inc.),
 the Gaussian(R) 94 system (copyright 1995, Gaussian, Inc.),
 the Gaussian 92(TM) system (copyright 1992, Gaussian, Inc.),
 the Gaussian 90(TM) system (copyright 1990, Gaussian, Inc.),
 the Gaussian 88(TM) system (copyright 1988, Gaussian, Inc.),
 the Gaussian 86(TM) system (copyright 1986, Carnegie Mellon
 University), and the Gaussian 82(TM) system (copyright 1983,
 Carnegie Mellon University). Gaussian is a federally registered
 trademark of Gaussian, Inc.
  
 This software contains proprietary and confidential information,
 including trade secrets, belonging to Gaussian, Inc.
  
 This software is provided under written license and may be
 used, copied, transmitted, or stored only in accord with that
 written license.
  
 The following legend is applicable only to US Government
 contracts under FAR:
  
                    RESTRICTED RIGHTS LEGEND
  
 Use, reproduction and disclosure by the US Government is
 subject to restrictions as set forth in subparagraphs (a)
 and (c) of the Commercial Computer Software - Restricted
 Rights clause in FAR 52.227-19.
  
 Gaussian, Inc.
 340 Quinnipiac St., Bldg. 40, Wallingford CT 06492
  
  
 ---------------------------------------------------------------
 Warning -- This program may not be used in any manner that
 competes with the business of Gaussian, Inc. or will provide
 assistance to any competitor of Gaussian, Inc.  The licensee
 of this program is prohibited from giving any competitor of
 Gaussian, Inc. access to this program.  By using this program,
 the user acknowledges that Gaussian, Inc. is engaged in the
 business of creating and licensing software in the field of
 computational chemistry and represents and warrants to the
 licensee that it is not a competitor of Gaussian, Inc. and that
 it will not use this program in any manner prohibited above.
 ---------------------------------------------------------------
  

 Cite this work as:
 Gaussian 16, Revision C.01,
 M. J. Frisch, G. W. Trucks, H. B. Schlegel, G. E. Scuseria, 
 M. A. Robb, J. R. Cheeseman, G. Scalmani, V. Barone, 
 G. A. Petersson, H. Nakatsuji, X. Li, M. Caricato, A. V. Marenich, 
 J. Bloino, B. G. Janesko, R. Gomperts, B. Mennucci, H. P. Hratchian, 
 J. V. Ortiz, A. F. Izmaylov, J. L. Sonnenberg, D. Williams-Young, 
 F. Ding, F. Lipparini, F. Egidi, J. Goings, B. Peng, A. Petrone, 
 T. Henderson, D. Ranasinghe, V. G. Zakrzewski, J. Gao, N. Rega, 
 G. Zheng, W. Liang, M. Hada, M. Ehara, K. Toyota, R. Fukuda, 
 J. Hasegawa, M. Ishida, T. Nakajima, Y. Honda, O. Kitao, H. Nakai, 
 T. Vreven, K. Throssell, J. A. Montgomery, Jr., J. E. Peralta, 
 F. Ogliaro, M. J. Bearpark, J. J. Heyd, E. N. Brothers, K. N. Kudin, 
 V. N. Staroverov, T. A. Keith, R. Kobayashi, J. Normand, 
 K. Raghavachari, A. P. Rendell, J. C. Burant, S. S. Iyengar, 
 J. Tomasi, M. Cossi, J. M. Millam, M. Klene, C. Adamo, R. Cammi, 
 J. W. Ochterski, R. L. Martin, K. Morokuma, O. Farkas, 
 J. B. Foresman, and D. J. Fox, Gaussian, Inc., Wallingford CT, 2019.
 
 ******************************************
 Gaussian 16:  ES64L-G16RevC.01  3-Jul-2019
                15-Apr-2021 
 ******************************************
 %chk=gtt_Best_geom_CCSDT_cc-pwCVTZ-ae.chk
 %nprocshared=64
 Will use up to   64 processors via shared memory.
 %mem=100GB
 -------------------
 #p CCSD(T)=FULL/gen
 -------------------
 1/38=1,172=1/1;
 2/12=2,17=6,18=5,40=1/2;
 3/5=7,11=9,25=1,30=1/1,2,3;
 4//1;
 5/5=2,38=5/2;
 8/6=4,9=120000,10=90/1,4;
 9/5=7,14=2/13;
 6/7=2,8=2,9=2,10=2/1;
 99/5=1,9=1/99;
 Leave Link    1 at Thu Apr 15 16:52:47 2021, MaxMem= 13421772800 cpu:               5.0 elap:               0.1
 (Enter /home/hexuye/G16_1123/data2/software/Gaussian/g16_from_xuruiqin/g16/l101.exe)
 --------------------------
 start best geom PCCP paper
 --------------------------
 Symbolic Z-matrix:
 Charge =  0 Multiplicity = 1
 C
 O                    1    B1
 O                    1    B2       2    A1
 H                    2    B3       1    A2       3    D1       0
 C                    1    B4       3    A3       2    D2       0
 N                    5    B5       1    A4       3    D3       0
 H                    5    B6       1    A5       3    D4       0
 H                    5    B7       1    A6       3    D5       0
 H                    6    B8       5    A7       1    D6       0
 H                    6    B9       5    A8       1    D7       0
       Variables:
  B1                    1.34608                  
  B2                    1.20274                  
  B3                    0.96513                  
  B4                    1.50353                  
  B5                    1.44879                  
  B6                    1.09682                  
  B7                    1.08963                  
  B8                    1.00859                  
  B9                    1.01187                  
  A1                  123.21263                  
  A2                  106.9601                   
  A3                  125.17128                  
  A4                  110.05161                  
  A5                  105.6396                   
  A6                  108.30581                  
  A7                  111.64684                  
  A8                  110.28053                  
  D1                    1.12063                  
  D2                  178.03326                  
  D3                   18.04528                  
  D4                 -106.18775                  
  D5                  139.44601                  
  D6                 -155.36007                  
  D7                  -34.31555                  
 
 ITRead=  0  0  0  0  0  0  0  0  0  0
 MicOpt= -1 -1 -1 -1 -1 -1 -1 -1 -1 -1
 NAtoms=     10 NQM=       10 NQMF=       0 NMMI=      0 NMMIF=      0
                NMic=       0 NMicF=      0.
                    Isotopes and Nuclear Properties:
 (Nuclear quadrupole moments (NQMom) in fm**2, nuclear magnetic moments (NMagM)
  in nuclear magnetons)

  Atom         1           2           3           4           5           6           7           8           9          10
 IAtWgt=          12          16          16           1          12          14           1           1           1           1
 AtmWgt=  12.0000000  15.9949146  15.9949146   1.0078250  12.0000000  14.0030740   1.0078250   1.0078250   1.0078250   1.0078250
 NucSpn=           0           0           0           1           0           2           1           1           1           1
 AtZEff=  -0.0000000  -0.0000000  -0.0000000  -0.0000000  -0.0000000  -0.0000000  -0.0000000  -0.0000000  -0.0000000  -0.0000000
 NQMom=    0.0000000   0.0000000   0.0000000   0.0000000   0.0000000   2.0440000   0.0000000   0.0000000   0.0000000   0.0000000
 NMagM=    0.0000000   0.0000000   0.0000000   2.7928460   0.0000000   0.4037610   2.7928460   2.7928460   2.7928460   2.7928460
 AtZNuc=   6.0000000   8.0000000   8.0000000   1.0000000   6.0000000   7.0000000   1.0000000   1.0000000   1.0000000   1.0000000
 Leave Link  101 at Thu Apr 15 16:52:47 2021, MaxMem= 13421772800 cpu:               6.8 elap:               0.2
 (Enter /home/hexuye/G16_1123/data2/software/Gaussian/g16_from_xuruiqin/g16/l202.exe)
                          Input orientation:                          
 ---------------------------------------------------------------------
 Center     Atomic      Atomic             Coordinates (Angstroms)
 Number     Number       Type             X           Y           Z
 ---------------------------------------------------------------------
      1          6           0        0.000000    0.000000    0.000000
      2          8           0        0.000000    0.000000    1.346080
      3          8           0        1.006265    0.000000   -0.658798
      4          1           0        0.922978    0.018055    1.627614
      5          6           0       -1.397395    0.042180   -0.553273
      6          7           0       -1.390055   -0.339641   -1.950825
      7          1           0       -1.761669    1.058393   -0.359291
      8          1           0       -2.017816   -0.635948    0.031974
      9          1           0       -2.181188    0.043508   -2.445353
     10          1           0       -0.540559   -0.019158   -2.397512
 ---------------------------------------------------------------------
                    Distance matrix (angstroms):
                    1          2          3          4          5
     1  C    0.000000
     2  O    1.346080   0.000000
     3  O    1.202740   2.243235   0.000000
     4  H    1.871187   0.965130   2.288000   0.000000
     5  C    1.503530   2.358396   2.406344   3.184491   0.000000
     6  N    2.419365   3.594049   2.743544   4.275897   1.448790
     7  H    2.086328   2.670574   2.978483   3.498203   1.096820
     8  H    2.115900   2.490560   3.166490   3.409114   1.089630
     9  H    3.277076   4.374293   3.654248   5.121089   2.047999
    10  H    2.457770   3.782466   2.327263   4.283102   2.034489
                    6          7          8          9         10
     6  N    0.000000
     7  H    2.150715   0.000000
     8  H    2.100803   1.757695   0.000000
     9  H    1.008590   2.357465   2.574004   0.000000
    10  H    1.011870   2.608940   2.909487   1.642523   0.000000
 Stoichiometry    C2H5NO2
 Framework group  C1[X(C2H5NO2)]
 Deg. of freedom    24
 Full point group                 C1      NOp   1
 Largest Abelian subgroup         C1      NOp   1
 Largest concise Abelian subgroup C1      NOp   1
                         Standard orientation:                         
 ---------------------------------------------------------------------
 Center     Atomic      Atomic             Coordinates (Angstroms)
 Number     Number       Type             X           Y           Z
 ---------------------------------------------------------------------
      1          6           0        0.533710    0.102893    0.014867
      2          8           0        1.632185   -0.670799   -0.066880
      3          8           0        0.575034    1.304539    0.045254
      4          1           0        2.393950   -0.078239   -0.074783
      5          6           0       -0.719436   -0.723120    0.103930
      6          7           0       -1.876755    0.096522   -0.192365
      7          1           0       -0.714656   -1.160119    1.109923
      8          1           0       -0.636201   -1.548521   -0.602525
      9          1           0       -2.714348   -0.276671    0.227657
     10          1           0       -1.734852    1.039339    0.146516
 ---------------------------------------------------------------------
 Rotational constants (GHZ):          10.4739593           4.0016078           2.9777418
 Leave Link  202 at Thu Apr 15 16:52:47 2021, MaxMem= 13421772800 cpu:               2.2 elap:               0.1
 (Enter /home/hexuye/G16_1123/data2/software/Gaussian/g16_from_xuruiqin/g16/l301.exe)
 General basis read from cards:  (5D, 7F)
 Centers:       4      7      8      9     10
 S 5 1.00
     Exponent=  3.3870000000D+01 Coefficients=  6.0680000000D-03
     Exponent=  5.0950000000D+00 Coefficients=  4.5308000000D-02
     Exponent=  1.1590000000D+00 Coefficients=  2.0282200000D-01
     Exponent=  3.2580000000D-01 Coefficients=  5.0390300000D-01
     Exponent=  1.0270000000D-01 Coefficients=  3.8342100000D-01
 S 1 1.00
     Exponent=  3.2580000000D-01 Coefficients=  1.0000000000D+00
 S 1 1.00
     Exponent=  1.0270000000D-01 Coefficients=  1.0000000000D+00
 P 1 1.00
     Exponent=  1.4070000000D+00 Coefficients=  1.0000000000D+00
 P 1 1.00
     Exponent=  3.8800000000D-01 Coefficients=  1.0000000000D+00
 D 1 1.00
     Exponent=  1.0570000000D+00 Coefficients=  1.0000000000D+00
 ****
 Centers:       1      5
 S 10 1.00
     Exponent=  8.2360000000D+03 Coefficients=  5.3100000000D-04
     Exponent=  1.2350000000D+03 Coefficients=  4.1080000000D-03
     Exponent=  2.8080000000D+02 Coefficients=  2.1087000000D-02
     Exponent=  7.9270000000D+01 Coefficients=  8.1853000000D-02
     Exponent=  2.5590000000D+01 Coefficients=  2.3481700000D-01
     Exponent=  8.9970000000D+00 Coefficients=  4.3440100000D-01
     Exponent=  3.3190000000D+00 Coefficients=  3.4612900000D-01
     Exponent=  9.0590000000D-01 Coefficients=  3.9378000000D-02
     Exponent=  3.6430000000D-01 Coefficients= -8.9830000000D-03
     Exponent=  1.2850000000D-01 Coefficients=  2.3850000000D-03
 S 10 1.00
     Exponent=  8.2360000000D+03 Coefficients= -1.1300000000D-04
     Exponent=  1.2350000000D+03 Coefficients= -8.7800000000D-04
     Exponent=  2.8080000000D+02 Coefficients= -4.5400000000D-03
     Exponent=  7.9270000000D+01 Coefficients= -1.8133000000D-02
     Exponent=  2.5590000000D+01 Coefficients= -5.5760000000D-02
     Exponent=  8.9970000000D+00 Coefficients= -1.2689500000D-01
     Exponent=  3.3190000000D+00 Coefficients= -1.7035200000D-01
     Exponent=  9.0590000000D-01 Coefficients=  1.4038200000D-01
     Exponent=  3.6430000000D-01 Coefficients=  5.9868400000D-01
     Exponent=  1.2850000000D-01 Coefficients=  3.9538900000D-01
 S 1 1.00
     Exponent=  8.8280000000D+00 Coefficients=  1.0000000000D+00
 S 1 1.00
     Exponent=  3.4740000000D+00 Coefficients=  1.0000000000D+00
 S 1 1.00
     Exponent=  9.0590000000D-01 Coefficients=  1.0000000000D+00
 S 1 1.00
     Exponent=  1.2850000000D-01 Coefficients=  1.0000000000D+00
 P 5 1.00
     Exponent=  1.8710000000D+01 Coefficients=  1.4031000000D-02
     Exponent=  4.1330000000D+00 Coefficients=  8.6866000000D-02
     Exponent=  1.2000000000D+00 Coefficients=  2.9021600000D-01
     Exponent=  3.8270000000D-01 Coefficients=  5.0100800000D-01
     Exponent=  1.2090000000D-01 Coefficients=  3.4340600000D-01
 P 1 1.00
     Exponent=  2.1552000000D+01 Coefficients=  1.0000000000D+00
 P 1 1.00
     Exponent=  5.4420000000D+00 Coefficients=  1.0000000000D+00
 P 1 1.00
     Exponent=  3.8270000000D-01 Coefficients=  1.0000000000D+00
 P 1 1.00
     Exponent=  1.2090000000D-01 Coefficients=  1.0000000000D+00
 D 1 1.00
     Exponent=  4.9500000000D+00 Coefficients=  1.0000000000D+00
 D 1 1.00
     Exponent=  1.0970000000D+00 Coefficients=  1.0000000000D+00
 D 1 1.00
     Exponent=  3.1800000000D-01 Coefficients=  1.0000000000D+00
 F 1 1.00
     Exponent=  7.6100000000D-01 Coefficients=  1.0000000000D+00
 ****
 Centers:       6
 S 10 1.00
     Exponent=  1.1420000000D+04 Coefficients=  5.2300000000D-04
     Exponent=  1.7120000000D+03 Coefficients=  4.0450000000D-03
     Exponent=  3.8930000000D+02 Coefficients=  2.0775000000D-02
     Exponent=  1.1000000000D+02 Coefficients=  8.0727000000D-02
     Exponent=  3.5570000000D+01 Coefficients=  2.3307400000D-01
     Exponent=  1.2540000000D+01 Coefficients=  4.3350100000D-01
     Exponent=  4.6440000000D+00 Coefficients=  3.4747200000D-01
     Exponent=  1.2930000000D+00 Coefficients=  4.1262000000D-02
     Exponent=  5.1180000000D-01 Coefficients= -8.5080000000D-03
     Exponent=  1.7870000000D-01 Coefficients=  2.3840000000D-03
 S 10 1.00
     Exponent=  1.1420000000D+04 Coefficients= -1.1500000000D-04
     Exponent=  1.7120000000D+03 Coefficients= -8.9500000000D-04
     Exponent=  3.8930000000D+02 Coefficients= -4.6240000000D-03
     Exponent=  1.1000000000D+02 Coefficients= -1.8528000000D-02
     Exponent=  3.5570000000D+01 Coefficients= -5.7339000000D-02
     Exponent=  1.2540000000D+01 Coefficients= -1.3207600000D-01
     Exponent=  4.6440000000D+00 Coefficients= -1.7251000000D-01
     Exponent=  1.2930000000D+00 Coefficients=  1.5181400000D-01
     Exponent=  5.1180000000D-01 Coefficients=  5.9994400000D-01
     Exponent=  1.7870000000D-01 Coefficients=  3.8746200000D-01
 S 1 1.00
     Exponent=  1.1807000000D+01 Coefficients=  1.0000000000D+00
 S 1 1.00
     Exponent=  4.7330000000D+00 Coefficients=  1.0000000000D+00
 S 1 1.00
     Exponent=  1.2930000000D+00 Coefficients=  1.0000000000D+00
 S 1 1.00
     Exponent=  1.7870000000D-01 Coefficients=  1.0000000000D+00
 P 5 1.00
     Exponent=  2.6630000000D+01 Coefficients=  1.4670000000D-02
     Exponent=  5.9480000000D+00 Coefficients=  9.1764000000D-02
     Exponent=  1.7420000000D+00 Coefficients=  2.9868300000D-01
     Exponent=  5.5500000000D-01 Coefficients=  4.9848700000D-01
     Exponent=  1.7250000000D-01 Coefficients=  3.3702300000D-01
 P 1 1.00
     Exponent=  2.9818000000D+01 Coefficients=  1.0000000000D+00
 P 1 1.00
     Exponent=  7.7430000000D+00 Coefficients=  1.0000000000D+00
 P 1 1.00
     Exponent=  5.5500000000D-01 Coefficients=  1.0000000000D+00
 P 1 1.00
     Exponent=  1.7250000000D-01 Coefficients=  1.0000000000D+00
 D 1 1.00
     Exponent=  7.3520000000D+00 Coefficients=  1.0000000000D+00
 D 1 1.00
     Exponent=  1.6540000000D+00 Coefficients=  1.0000000000D+00
 D 1 1.00
     Exponent=  4.6900000000D-01 Coefficients=  1.0000000000D+00
 F 1 1.00
     Exponent=  1.0930000000D+00 Coefficients=  1.0000000000D+00
 ****
 Centers:       2      3
 S 10 1.00
     Exponent=  1.5330000000D+04 Coefficients=  5.0800000000D-04
     Exponent=  2.2990000000D+03 Coefficients=  3.9290000000D-03
     Exponent=  5.2240000000D+02 Coefficients=  2.0243000000D-02
     Exponent=  1.4730000000D+02 Coefficients=  7.9181000000D-02
     Exponent=  4.7550000000D+01 Coefficients=  2.3068700000D-01
     Exponent=  1.6760000000D+01 Coefficients=  4.3311800000D-01
     Exponent=  6.2070000000D+00 Coefficients=  3.5026000000D-01
     Exponent=  1.7520000000D+00 Coefficients=  4.2728000000D-02
     Exponent=  6.8820000000D-01 Coefficients= -8.1540000000D-03
     Exponent=  2.3840000000D-01 Coefficients=  2.3810000000D-03
 S 10 1.00
     Exponent=  1.5330000000D+04 Coefficients= -1.1500000000D-04
     Exponent=  2.2990000000D+03 Coefficients= -8.9500000000D-04
     Exponent=  5.2240000000D+02 Coefficients= -4.6360000000D-03
     Exponent=  1.4730000000D+02 Coefficients= -1.8724000000D-02
     Exponent=  4.7550000000D+01 Coefficients= -5.8463000000D-02
     Exponent=  1.6760000000D+01 Coefficients= -1.3646300000D-01
     Exponent=  6.2070000000D+00 Coefficients= -1.7574000000D-01
     Exponent=  1.7520000000D+00 Coefficients=  1.6093400000D-01
     Exponent=  6.8820000000D-01 Coefficients=  6.0341800000D-01
     Exponent=  2.3840000000D-01 Coefficients=  3.7876500000D-01
 S 1 1.00
     Exponent=  1.5381000000D+01 Coefficients=  1.0000000000D+00
 S 1 1.00
     Exponent=  6.2450000000D+00 Coefficients=  1.0000000000D+00
 S 1 1.00
     Exponent=  1.7520000000D+00 Coefficients=  1.0000000000D+00
 S 1 1.00
     Exponent=  2.3840000000D-01 Coefficients=  1.0000000000D+00
 P 5 1.00
     Exponent=  3.4460000000D+01 Coefficients=  1.5928000000D-02
     Exponent=  7.7490000000D+00 Coefficients=  9.9740000000D-02
     Exponent=  2.2800000000D+00 Coefficients=  3.1049200000D-01
     Exponent=  7.1560000000D-01 Coefficients=  4.9102600000D-01
     Exponent=  2.1400000000D-01 Coefficients=  3.3633700000D-01
 P 1 1.00
     Exponent=  3.8484000000D+01 Coefficients=  1.0000000000D+00
 P 1 1.00
     Exponent=  1.0216000000D+01 Coefficients=  1.0000000000D+00
 P 1 1.00
     Exponent=  7.1560000000D-01 Coefficients=  1.0000000000D+00
 P 1 1.00
     Exponent=  2.1400000000D-01 Coefficients=  1.0000000000D+00
 D 1 1.00
     Exponent=  1.0238000000D+01 Coefficients=  1.0000000000D+00
 D 1 1.00
     Exponent=  2.3140000000D+00 Coefficients=  1.0000000000D+00
 D 1 1.00
     Exponent=  6.4500000000D-01 Coefficients=  1.0000000000D+00
 F 1 1.00
     Exponent=  1.4280000000D+00 Coefficients=  1.0000000000D+00
 ****
 Ernie: Thresh=  0.10000D-02 Tol=  0.10000D-05 Strict=F.
 Ernie:  35 primitive shells out of 235 were deleted.
 There are   320 symmetry adapted cartesian basis functions of A   symmetry.
 There are   285 symmetry adapted basis functions of A   symmetry.
   285 basis functions,   455 primitive gaussians,   320 cartesian basis functions
    20 alpha electrons       20 beta electrons
       nuclear repulsion energy       180.5543247289 Hartrees.
 IExCor=    0 DFT=F Ex=HF Corr=None ExCW=0 ScaHFX=  1.000000
 ScaDFX=  1.000000  1.000000  1.000000  1.000000 ScalE2=  1.000000  1.000000
 IRadAn=      5 IRanWt=     -1 IRanGd=            0 ICorTp=0 IEmpDi=  4
 NAtoms=   10 NActive=   10 NUniq=   10 SFac= 1.00D+00 NAtFMM=   60 NAOKFM=F Big=F
 Integral buffers will be    131072 words long.
 Raffenetti 1 integral format.
 Two-electron integral symmetry is turned on.
 Leave Link  301 at Thu Apr 15 16:52:48 2021, MaxMem= 13421772800 cpu:              15.4 elap:               0.3
 (Enter /home/hexuye/G16_1123/data2/software/Gaussian/g16_from_xuruiqin/g16/l302.exe)
 NPDir=0 NMtPBC=     1 NCelOv=     1 NCel=       1 NClECP=     1 NCelD=      1
         NCelK=      1 NCelE2=     1 NClLst=     1 CellRange=     0.0.
 One-electron integrals computed using PRISM.
 One-electron integral symmetry used in STVInt
 NBasis=   285 RedAO= T EigKep=  4.35D-04  NBF=   285
 NBsUse=   285 1.00D-06 EigRej= -1.00D+00 NBFU=   285
 Leave Link  302 at Thu Apr 15 16:52:48 2021, MaxMem= 13421772800 cpu:              35.3 elap:               0.6
 (Enter /home/hexuye/G16_1123/data2/software/Gaussian/g16_from_xuruiqin/g16/l303.exe)
 DipDrv:  MaxL=1.
 Leave Link  303 at Thu Apr 15 16:52:48 2021, MaxMem= 13421772800 cpu:               4.3 elap:               0.1
 (Enter /home/hexuye/G16_1123/data2/software/Gaussian/g16_from_xuruiqin/g16/l401.exe)
 ExpMin= 1.03D-01 ExpMax= 1.53D+04 ExpMxC= 5.22D+02 IAcc=3 IRadAn=         5 AccDes= 0.00D+00
 Harris functional with IExCor=  205 and IRadAn=       5 diagonalized for initial guess.
 HarFok:  IExCor=  205 AccDes= 0.00D+00 IRadAn=         5 IDoV= 1 UseB2=F ITyADJ=14
 ICtDFT=  3500011 ScaDFX=  1.000000  1.000000  1.000000  1.000000
 FoFCou: FMM=F IPFlag=           0 FMFlag=      100000 FMFlg1=           0
         NFxFlg=           0 DoJE=T BraDBF=F KetDBF=T FulRan=T
         wScrn=  0.000000 ICntrl=       500 IOpCl=  0 I1Cent=   200000004 NGrid=           0
         NMat0=    1 NMatS0=      1 NMatT0=    0 NMatD0=    1 NMtDS0=    0 NMtDT0=    0
 Petite list used in FoFCou.
 Harris En= -283.230775245592    
 JPrj=0 DoOrth=F DoCkMO=F.
 Leave Link  401 at Thu Apr 15 16:52:49 2021, MaxMem= 13421772800 cpu:              45.6 elap:               0.8
 (Enter /home/hexuye/G16_1123/data2/software/Gaussian/g16_from_xuruiqin/g16/l502.exe)
 Keep R1 ints in memory in canonical form, NReq=863056252.
 FoFCou: FMM=F IPFlag=           0 FMFlag=           0 FMFlg1=           0
         NFxFlg=           0 DoJE=F BraDBF=F KetDBF=F FulRan=T
         wScrn=  0.000000 ICntrl=       600 IOpCl=  0 I1Cent=           0 NGrid=           0
         NMat0=    1 NMatS0=  40755 NMatT0=    0 NMatD0=    1 NMtDS0=    0 NMtDT0=    0
 Symmetry not used in FoFCou.
 Two-electron integral symmetry not used.
 Closed shell SCF:
 Using DIIS extrapolation, IDIIS=  1040.
 NGot= 13421772800 LenX= 12591039114 LenY= 12590936273
 Requested convergence on RMS density matrix=1.00D-08 within 128 cycles.
 Requested convergence on MAX density matrix=1.00D-06.
 Requested convergence on             energy=1.00D-06.
 No special actions if energy rises.

 Cycle   1  Pass 1  IDiag  1:
 E= -282.703702486357    
 DIIS: error= 3.52D-02 at cycle   1 NSaved=   1.
 NSaved= 1 IEnMin= 1 EnMin= -282.703702486357     IErMin= 1 ErrMin= 3.52D-02
 ErrMax= 3.52D-02  0.00D+00 EMaxC= 1.00D-01 BMatC= 6.76D-01 BMatP= 6.76D-01
 IDIUse=3 WtCom= 6.48D-01 WtEn= 3.52D-01
 Coeff-Com:  0.100D+01
 Coeff-En:   0.100D+01
 Coeff:      0.100D+01
 Gap=     0.507 Goal=   None    Shift=    0.000
 GapD=    0.507 DampG=2.000 DampE=0.500 DampFc=1.0000 IDamp=-1.
 RMSDP=4.11D-03 MaxDP=3.00D-01              OVMax= 1.15D-01

 Cycle   2  Pass 1  IDiag  1:
 E= -282.894092439351     Delta-E=       -0.190389952994 Rises=F Damp=F
 DIIS: error= 1.22D-02 at cycle   2 NSaved=   2.
 NSaved= 2 IEnMin= 2 EnMin= -282.894092439351     IErMin= 2 ErrMin= 1.22D-02
 ErrMax= 1.22D-02  0.00D+00 EMaxC= 1.00D-01 BMatC= 7.91D-02 BMatP= 6.76D-01
 IDIUse=3 WtCom= 8.78D-01 WtEn= 1.22D-01
 Coeff-Com:  0.176D+00 0.824D+00
 Coeff-En:   0.000D+00 0.100D+01
 Coeff:      0.155D+00 0.845D+00
 Gap=     0.573 Goal=   None    Shift=    0.000
 RMSDP=1.52D-03 MaxDP=1.23D-01 DE=-1.90D-01 OVMax= 5.39D-02

 Cycle   3  Pass 1  IDiag  1:
 E= -282.939314884936     Delta-E=       -0.045222445585 Rises=F Damp=F
 DIIS: error= 6.10D-03 at cycle   3 NSaved=   3.
 NSaved= 3 IEnMin= 3 EnMin= -282.939314884936     IErMin= 3 ErrMin= 6.10D-03
 ErrMax= 6.10D-03  0.00D+00 EMaxC= 1.00D-01 BMatC= 1.15D-02 BMatP= 7.91D-02
 IDIUse=3 WtCom= 9.39D-01 WtEn= 6.10D-02
 Coeff-Com: -0.254D-01 0.247D+00 0.778D+00
 Coeff-En:   0.000D+00 0.000D+00 0.100D+01
 Coeff:     -0.238D-01 0.232D+00 0.792D+00
 Gap=     0.538 Goal=   None    Shift=    0.000
 RMSDP=4.25D-04 MaxDP=4.93D-02 DE=-4.52D-02 OVMax= 2.63D-02

 Cycle   4  Pass 1  IDiag  1:
 E= -282.946522217515     Delta-E=       -0.007207332579 Rises=F Damp=F
 DIIS: error= 1.25D-03 at cycle   4 NSaved=   4.
 NSaved= 4 IEnMin= 4 EnMin= -282.946522217515     IErMin= 4 ErrMin= 1.25D-03
 ErrMax= 1.25D-03  0.00D+00 EMaxC= 1.00D-01 BMatC= 4.17D-04 BMatP= 1.15D-02
 IDIUse=3 WtCom= 9.88D-01 WtEn= 1.25D-02
 Coeff-Com: -0.109D-01 0.570D-01 0.254D+00 0.700D+00
 Coeff-En:   0.000D+00 0.000D+00 0.000D+00 0.100D+01
 Coeff:     -0.108D-01 0.563D-01 0.251D+00 0.704D+00
 Gap=     0.535 Goal=   None    Shift=    0.000
 RMSDP=9.29D-05 MaxDP=9.33D-03 DE=-7.21D-03 OVMax= 5.05D-03

 Cycle   5  Pass 1  IDiag  1:
 E= -282.946863116867     Delta-E=       -0.000340899352 Rises=F Damp=F
 DIIS: error= 5.57D-04 at cycle   5 NSaved=   5.
 NSaved= 5 IEnMin= 5 EnMin= -282.946863116867     IErMin= 5 ErrMin= 5.57D-04
 ErrMax= 5.57D-04  0.00D+00 EMaxC= 1.00D-01 BMatC= 2.84D-05 BMatP= 4.17D-04
 IDIUse=3 WtCom= 9.94D-01 WtEn= 5.57D-03
 Coeff-Com:  0.221D-02-0.240D-01-0.779D-01 0.465D-01 0.105D+01
 Coeff-En:   0.000D+00 0.000D+00 0.000D+00 0.000D+00 0.100D+01
 Coeff:      0.219D-02-0.238D-01-0.775D-01 0.462D-01 0.105D+01
 Gap=     0.536 Goal=   None    Shift=    0.000
 RMSDP=3.99D-05 MaxDP=4.20D-03 DE=-3.41D-04 OVMax= 3.62D-03

 Cycle   6  Pass 1  IDiag  1:
 E= -282.946913924195     Delta-E=       -0.000050807328 Rises=F Damp=F
 DIIS: error= 1.03D-04 at cycle   6 NSaved=   6.
 NSaved= 6 IEnMin= 6 EnMin= -282.946913924195     IErMin= 6 ErrMin= 1.03D-04
 ErrMax= 1.03D-04  0.00D+00 EMaxC= 1.00D-01 BMatC= 3.80D-06 BMatP= 2.84D-05
 IDIUse=3 WtCom= 9.99D-01 WtEn= 1.03D-03
 Coeff-Com:  0.141D-02-0.103D-01-0.382D-01-0.704D-01 0.172D+00 0.945D+00
 Coeff-En:   0.000D+00 0.000D+00 0.000D+00 0.000D+00 0.000D+00 0.100D+01
 Coeff:      0.141D-02-0.103D-01-0.382D-01-0.703D-01 0.172D+00 0.945D+00
 Gap=     0.536 Goal=   None    Shift=    0.000
 RMSDP=1.68D-05 MaxDP=1.48D-03 DE=-5.08D-05 OVMax= 1.06D-03

 Cycle   7  Pass 1  IDiag  1:
 E= -282.946921068435     Delta-E=       -0.000007144240 Rises=F Damp=F
 DIIS: error= 5.72D-05 at cycle   7 NSaved=   7.
 NSaved= 7 IEnMin= 7 EnMin= -282.946921068435     IErMin= 7 ErrMin= 5.72D-05
 ErrMax= 5.72D-05  0.00D+00 EMaxC= 1.00D-01 BMatC= 4.89D-07 BMatP= 3.80D-06
 IDIUse=1 WtCom= 1.00D+00 WtEn= 0.00D+00
 Coeff-Com: -0.184D-03 0.236D-02 0.920D-02-0.167D-01-0.116D+00 0.323D-01
 Coeff-Com:  0.109D+01
 Coeff:     -0.184D-03 0.236D-02 0.920D-02-0.167D-01-0.116D+00 0.323D-01
 Coeff:      0.109D+01
 Gap=     0.536 Goal=   None    Shift=    0.000
 RMSDP=6.64D-06 MaxDP=6.84D-04 DE=-7.14D-06 OVMax= 6.94D-04

 Cycle   8  Pass 1  IDiag  1:
 E= -282.946922331804     Delta-E=       -0.000001263370 Rises=F Damp=F
 DIIS: error= 1.72D-05 at cycle   8 NSaved=   8.
 NSaved= 8 IEnMin= 8 EnMin= -282.946922331804     IErMin= 8 ErrMin= 1.72D-05
 ErrMax= 1.72D-05  0.00D+00 EMaxC= 1.00D-01 BMatC= 7.06D-08 BMatP= 4.89D-07
 IDIUse=1 WtCom= 1.00D+00 WtEn= 0.00D+00
 Coeff-Com: -0.168D-03 0.116D-02 0.446D-02 0.634D-02-0.329D-02-0.122D+00
 Coeff-Com: -0.141D+00 0.126D+01
 Coeff:     -0.168D-03 0.116D-02 0.446D-02 0.634D-02-0.329D-02-0.122D+00
 Coeff:     -0.141D+00 0.126D+01
 Gap=     0.536 Goal=   None    Shift=    0.000
 RMSDP=2.91D-06 MaxDP=3.11D-04 DE=-1.26D-06 OVMax= 3.01D-04

 Cycle   9  Pass 1  IDiag  1:
 E= -282.946922532064     Delta-E=       -0.000000200259 Rises=F Damp=F
 DIIS: error= 6.28D-06 at cycle   9 NSaved=   9.
 NSaved= 9 IEnMin= 9 EnMin= -282.946922532064     IErMin= 9 ErrMin= 6.28D-06
 ErrMax= 6.28D-06  0.00D+00 EMaxC= 1.00D-01 BMatC= 8.89D-09 BMatP= 7.06D-08
 IDIUse=1 WtCom= 1.00D+00 WtEn= 0.00D+00
 Coeff-Com: -0.528D-05-0.102D-03-0.370D-03 0.229D-02 0.159D-01-0.238D-01
 Coeff-Com: -0.159D+00 0.195D+00 0.970D+00
 Coeff:     -0.528D-05-0.102D-03-0.370D-03 0.229D-02 0.159D-01-0.238D-01
 Coeff:     -0.159D+00 0.195D+00 0.970D+00
 Gap=     0.536 Goal=   None    Shift=    0.000
 RMSDP=8.66D-07 MaxDP=8.66D-05 DE=-2.00D-07 OVMax= 8.61D-05

 Cycle  10  Pass 1  IDiag  1:
 E= -282.946922551038     Delta-E=       -0.000000018974 Rises=F Damp=F
 DIIS: error= 2.17D-06 at cycle  10 NSaved=  10.
 NSaved=10 IEnMin=10 EnMin= -282.946922551038     IErMin=10 ErrMin= 2.17D-06
 ErrMax= 2.17D-06  0.00D+00 EMaxC= 1.00D-01 BMatC= 9.41D-10 BMatP= 8.89D-09
 IDIUse=1 WtCom= 1.00D+00 WtEn= 0.00D+00
 Coeff-Com:  0.233D-04-0.179D-03-0.653D-03-0.112D-02 0.210D-02 0.153D-01
 Coeff-Com:  0.116D-01-0.167D+00 0.589D-01 0.108D+01
 Coeff:      0.233D-04-0.179D-03-0.653D-03-0.112D-02 0.210D-02 0.153D-01
 Coeff:      0.116D-01-0.167D+00 0.589D-01 0.108D+01
 Gap=     0.536 Goal=   None    Shift=    0.000
 RMSDP=2.95D-07 MaxDP=3.52D-05 DE=-1.90D-08 OVMax= 2.60D-05

 Cycle  11  Pass 1  IDiag  1:
 E= -282.946922553126     Delta-E=       -0.000000002088 Rises=F Damp=F
 DIIS: error= 5.31D-07 at cycle  11 NSaved=  11.
 NSaved=11 IEnMin=11 EnMin= -282.946922553126     IErMin=11 ErrMin= 5.31D-07
 ErrMax= 5.31D-07  0.00D+00 EMaxC= 1.00D-01 BMatC= 6.18D-11 BMatP= 9.41D-10
 IDIUse=1 WtCom= 1.00D+00 WtEn= 0.00D+00
 Coeff-Com: -0.690D-07 0.835D-05 0.551D-04-0.160D-03-0.920D-03 0.480D-03
 Coeff-Com:  0.103D-01-0.615D-03-0.852D-01-0.867D-01 0.116D+01
 Coeff:     -0.690D-07 0.835D-05 0.551D-04-0.160D-03-0.920D-03 0.480D-03
 Coeff:      0.103D-01-0.615D-03-0.852D-01-0.867D-01 0.116D+01
 Gap=     0.536 Goal=   None    Shift=    0.000
 RMSDP=8.04D-08 MaxDP=7.43D-06 DE=-2.09D-09 OVMax= 4.75D-06

 Cycle  12  Pass 1  IDiag  1:
 E= -282.946922553259     Delta-E=       -0.000000000132 Rises=F Damp=F
 DIIS: error= 1.26D-07 at cycle  12 NSaved=  12.
 NSaved=12 IEnMin=12 EnMin= -282.946922553259     IErMin=12 ErrMin= 1.26D-07
 ErrMax= 1.26D-07  0.00D+00 EMaxC= 1.00D-01 BMatC= 3.23D-12 BMatP= 6.18D-11
 IDIUse=1 WtCom= 1.00D+00 WtEn= 0.00D+00
 Coeff-Com: -0.134D-05 0.102D-04 0.387D-04 0.621D-04-0.772D-04-0.995D-03
 Coeff-Com: -0.144D-02 0.124D-01-0.375D-02-0.672D-01-0.129D-01 0.107D+01
 Coeff:     -0.134D-05 0.102D-04 0.387D-04 0.621D-04-0.772D-04-0.995D-03
 Coeff:     -0.144D-02 0.124D-01-0.375D-02-0.672D-01-0.129D-01 0.107D+01
 Gap=     0.536 Goal=   None    Shift=    0.000
 RMSDP=1.78D-08 MaxDP=1.25D-06 DE=-1.32D-10 OVMax= 9.25D-07

 Cycle  13  Pass 1  IDiag  1:
 E= -282.946922553262     Delta-E=       -0.000000000003 Rises=F Damp=F
 DIIS: error= 4.10D-08 at cycle  13 NSaved=  13.
 NSaved=13 IEnMin=13 EnMin= -282.946922553262     IErMin=13 ErrMin= 4.10D-08
 ErrMax= 4.10D-08  0.00D+00 EMaxC= 1.00D-01 BMatC= 3.60D-13 BMatP= 3.23D-12
 IDIUse=1 WtCom= 1.00D+00 WtEn= 0.00D+00
 Coeff-Com:  0.122D-06-0.160D-05-0.800D-05 0.931D-05 0.106D-03 0.167D-04
 Coeff-Com: -0.106D-02-0.198D-03 0.764D-02 0.104D-01-0.107D+00-0.264D-01
 Coeff-Com:  0.112D+01
 Coeff:      0.122D-06-0.160D-05-0.800D-05 0.931D-05 0.106D-03 0.167D-04
 Coeff:     -0.106D-02-0.198D-03 0.764D-02 0.104D-01-0.107D+00-0.264D-01
 Coeff:      0.112D+01
 Gap=     0.536 Goal=   None    Shift=    0.000
 RMSDP=6.16D-09 MaxDP=3.86D-07 DE=-3.41D-12 OVMax= 4.56D-07

 SCF Done:  E(RHF) =  -282.946922553     A.U. after   13 cycles
            NFock= 13  Conv=0.62D-08     -V/T= 2.0010
 KE= 2.826724412766D+02 PE=-1.027640992144D+03 EE= 2.814673035855D+02
 Leave Link  502 at Thu Apr 15 16:53:13 2021, MaxMem= 13421772800 cpu:             166.8 elap:              23.4
 (Enter /home/hexuye/G16_1123/data2/software/Gaussian/g16_from_xuruiqin/g16/l801.exe)
 Windowed orbitals will be sorted by symmetry type.
 Range of M.O.s used for correlation:     1   285
 NBasis=   285 NAE=    20 NBE=    20 NFC=     0 NFV=     0
 NROrb=    285 NOA=    20 NOB=    20 NVA=   265 NVB=   265

 **** Warning!!: The largest alpha MO coefficient is  0.12731302D+02

 Leave Link  801 at Thu Apr 15 16:53:13 2021, MaxMem= 13421772800 cpu:               4.4 elap:               0.2
 (Enter /home/hexuye/G16_1123/data2/software/Gaussian/g16_from_xuruiqin/g16/l804.exe)
 Closed-shell transformation, MDV= 13421772800 ITran=4 ISComp=1.
 Unit  1 TFree=       2602069 TCopy=       1398271.
 Semi-Direct transformation.
 ModeAB=           4 MOrb=            20 LenV=   13419602363
 LASXX=    221155345 LTotXX=   221155345 LenRXX=   444602395
 LTotAB=   223447050 MaxLAS=   278108700 LenRXY=           0
 NonZer=   665757740 LenScr=   998768640 LnRSAI=   278108700
 LnScr1=   417464320 LExtra=           0 Total=   2138944055
 MaxDsk=          -1 SrtSym=           T ITran=            4
 DoSDTr:  NPSUse= 64
 JobTyp=0 Pass  1:  I=   1 to  20.
 (rs|ai) integrals will be sorted in core.
 Complete sort for first half transformation.
 First half transformation complete.
 Begin second half transformation for I=  10.
 Begin second half transformation for I=  20.
 Complete sort for second half transformation.
 Second half transformation complete.
 SymMOI:  orbitals are not symmetric.
 Spin components of T(2) and E(2):
     alpha-alpha T2 =       0.3590685770D-01 E2=     -0.1435705083D+00
     alpha-beta  T2 =       0.2007559732D+00 E2=     -0.9828310509D+00
     beta-beta   T2 =       0.3590685770D-01 E2=     -0.1435705083D+00
 ANorm=    0.1128082306D+01
 E2 =    -0.1269972068D+01 EUMP2 =    -0.28421689462084D+03
 Leave Link  804 at Thu Apr 15 16:54:37 2021, MaxMem= 13421772800 cpu:            5341.0 elap:              83.7
 (Enter /home/hexuye/G16_1123/data2/software/Gaussian/g16_from_xuruiqin/g16/l913.exe)
 CIDS:  MDV= 13421772800.
 IFCWin=0 IBDFC=1 NFBD=     0     0 NFCmp=     0     0 NFFFC=     0     0
 Using DD3R+UMP44R for 1st iteration.
 Using DD4RQ for 2nd and later iterations.
 Keep R2 and R3 ints in memory in canonical form, NReq=1693575247.
 FoFCou: FMM=F IPFlag=           0 FMFlag=           0 FMFlg1=           0
         NFxFlg=           0 DoJE=F BraDBF=F KetDBF=F FulRan=T
         wScrn=  0.000000 ICntrl=       600 IOpCl=  0 I1Cent=           0 NGrid=           0
         NMat0=    1 NMatS0=  40755 NMatT0=    0 NMatD0=    1 NMtDS0=    0 NMtDT0=    0
 Symmetry not used in FoFCou.
 Two-electron integral symmetry not used.
 CIDS: In Core Option IDoMem=           1.
 CCSD(T)
 =======
 Iterations=  50 Convergence= 0.100D-06
 Produce multiple copies of IABC intergrals
 Iteration Nr.   1
 **********************
 DD1Dir will call FoFMem   1 times, MxPair=       420
 NAB=   210 NAA=     0 NBB=     0.
 MP4(R+Q)=  0.24239634D-01
 Maximum subspace dimension=  5
 A-vector RMS=  1.7831887D-03 Max=  2.4804336D-02 conv= 1.00D-05.
 RLE energy=       -1.2629868532
 E3=       -0.17826197D-01        EUMP3=      -0.28423472082D+03
 E4(DQ)=    0.29892818D-02        UMP4(DQ)=   -0.28423173154D+03
 E4(SDQ)=  -0.96019166D-02        UMP4(SDQ)=  -0.28424432273D+03
 VARIATIONAL ENERGIES WITH THE FIRST-ORDER WAVEFUNCTION:
 DE(Corr)=  -1.2629485     E(Corr)=     -284.20987107    
 NORM(A)=   0.11273343D+01
 Iteration Nr.   2
 **********************
 DD1Dir will call FoFMem   1 times, MxPair=       420
 NAB=   210 NAA=     0 NBB=     0.
 A-vector RMS=  2.6583694D-04 Max=  7.4376305D-03 conv= 1.00D-05.
 RLE energy=       -1.2924934388
 DE(Corr)=  -1.2927013     E(CORR)=     -284.23962381     Delta=-2.98D-02
 NORM(A)=   0.11363558D+01
 Iteration Nr.   3
 **********************
 DD1Dir will call FoFMem   1 times, MxPair=       420
 NAB=   210 NAA=     0 NBB=     0.
 A-vector RMS=  3.3390942D-04 Max=  4.9911890D-03 conv= 1.00D-05.
 RLE energy=       -1.2940101658
 DE(Corr)=  -1.2915989     E(CORR)=     -284.23852143     Delta= 1.10D-03
 NORM(A)=   0.11388680D+01
 Iteration Nr.   4
 **********************
 DD1Dir will call FoFMem   1 times, MxPair=       420
 NAB=   210 NAA=     0 NBB=     0.
 A-vector RMS=  5.6002751D-05 Max=  1.0573077D-03 conv= 1.00D-05.
 RLE energy=       -1.2941838613
 DE(Corr)=  -1.2939970     E(CORR)=     -284.24091950     Delta=-2.40D-03
 NORM(A)=   0.11396403D+01
 Iteration Nr.   5
 **********************
 DD1Dir will call FoFMem   1 times, MxPair=       420
 NAB=   210 NAA=     0 NBB=     0.
 A-vector RMS=  3.4923454D-05 Max=  4.8730443D-04 conv= 1.00D-05.
 RLE energy=       -1.2943077854
 DE(Corr)=  -1.2942593     E(CORR)=     -284.24118186     Delta=-2.62D-04
 NORM(A)=   0.11398898D+01
 Iteration Nr.   6
 **********************
 DD1Dir will call FoFMem   1 times, MxPair=       420
 NAB=   210 NAA=     0 NBB=     0.
 A-vector RMS=  9.3539959D-06 Max=  1.2632497D-04 conv= 1.00D-05.
 RLE energy=       -1.2942894086
 DE(Corr)=  -1.2942818     E(CORR)=     -284.24120437     Delta=-2.25D-05
 NORM(A)=   0.11399171D+01
 Iteration Nr.   7
 **********************
 DD1Dir will call FoFMem   1 times, MxPair=       420
 NAB=   210 NAA=     0 NBB=     0.
 A-vector RMS=  3.8841886D-06 Max=  7.5762701D-05 conv= 1.00D-05.
 RLE energy=       -1.2942702238
 DE(Corr)=  -1.2942833     E(CORR)=     -284.24120589     Delta=-1.52D-06
 NORM(A)=   0.11399191D+01
 Iteration Nr.   8
 **********************
 DD1Dir will call FoFMem   1 times, MxPair=       420
 NAB=   210 NAA=     0 NBB=     0.
 A-vector RMS=  1.4281387D-06 Max=  2.0704545D-05 conv= 1.00D-05.
 RLE energy=       -1.2942816286
 DE(Corr)=  -1.2942824     E(CORR)=     -284.24120498     Delta= 9.11D-07
 NORM(A)=   0.11399230D+01
 Iteration Nr.   9
 **********************
 DD1Dir will call FoFMem   1 times, MxPair=       420
 NAB=   210 NAA=     0 NBB=     0.
 A-vector RMS=  3.9711479D-07 Max=  6.4739642D-06 conv= 1.00D-05.
 RLE energy=       -1.2942806767
 DE(Corr)=  -1.2942810     E(CORR)=     -284.24120360     Delta= 1.38D-06
 NORM(A)=   0.11399233D+01
 Iteration Nr.  10
 **********************
 DD1Dir will call FoFMem   1 times, MxPair=       420
 NAB=   210 NAA=     0 NBB=     0.
 A-vector RMS=  2.1892764D-07 Max=  2.8073593D-06 conv= 1.00D-05.
 RLE energy=       -1.2942819111
 DE(Corr)=  -1.2942819     E(CORR)=     -284.24120445     Delta=-8.53D-07
 NORM(A)=   0.11399240D+01
 Iteration Nr.  11
 **********************
 DD1Dir will call FoFMem   1 times, MxPair=       420
 NAB=   210 NAA=     0 NBB=     0.
 A-vector RMS=  9.0935544D-08 Max=  1.6562937D-06 conv= 1.00D-05.
 RLE energy=       -1.2942822269
 DE(Corr)=  -1.2942820     E(CORR)=     -284.24120459     Delta=-1.38D-07
 NORM(A)=   0.11399242D+01
 Iteration Nr.  12
 **********************
 DD1Dir will call FoFMem   1 times, MxPair=       420
 NAB=   210 NAA=     0 NBB=     0.
 A-vector RMS=  4.6125052D-08 Max=  8.7404923D-07 conv= 1.00D-05.
 RLE energy=       -1.2942822718
 DE(Corr)=  -1.2942822     E(CORR)=     -284.24120478     Delta=-1.89D-07
 NORM(A)=   0.11399244D+01
 Iteration Nr.  13
 **********************
 DD1Dir will call FoFMem   1 times, MxPair=       420
 NAB=   210 NAA=     0 NBB=     0.
 A-vector RMS=  2.4506531D-08 Max=  4.9423828D-07 conv= 1.00D-05.
 RLE energy=       -1.2942823219
 DE(Corr)=  -1.2942823     E(CORR)=     -284.24120484     Delta=-6.34D-08
 NORM(A)=   0.11399245D+01
 CI/CC converged in   13 iterations to DelEn=-6.34D-08 Conv= 1.00D-07 ErrA1= 2.45D-08 Conv= 1.00D-05
 Wavefunction amplitudes converged. E(Corr)=     -284.24120484    
 Largest amplitude= 4.41D-02
 T4(AAA)= -0.13987450D-02
 T4(AAB)= -0.22580640D-01
 T5(AAA)=  0.84330455D-04
 T5(AAB)=  0.97808460D-03
 Time for triples=   181236.76 seconds.
 T4(CCSD)= -0.47958770D-01
 T5(CCSD)=  0.21248301D-02
 CCSD(T)= -0.28428703878D+03
 Discarding MO integrals.
 Leave Link  913 at Thu Apr 15 17:54:45 2021, MaxMem= 13421772800 cpu:          225789.2 elap:            3573.9
 (Enter /home/hexuye/G16_1123/data2/software/Gaussian/g16_from_xuruiqin/g16/l601.exe)
 Copying SCF densities to generalized density rwf, IOpCl= 0 IROHF=0.

 **********************************************************************

            Population analysis using the SCF Density.

 **********************************************************************

 Orbital symmetries:
       Occupied  (A) (A) (A) (A) (A) (A) (A) (A) (A) (A) (A) (A)
                 (A) (A) (A) (A) (A) (A) (A) (A)
       Virtual   (A) (A) (A) (A) (A) (A) (A) (A) (A) (A) (A) (A)
                 (A) (A) (A) (A) (A) (A) (A) (A) (A) (A) (A) (A)
                 (A) (A) (A) (A) (A) (A) (A) (A) (A) (A) (A) (A)
                 (A) (A) (A) (A) (A) (A) (A) (A) (A) (A) (A) (A)
                 (A) (A) (A) (A) (A) (A) (A) (A) (A) (A) (A) (A)
                 (A) (A) (A) (A) (A) (A) (A) (A) (A) (A) (A) (A)
                 (A) (A) (A) (A) (A) (A) (A) (A) (A) (A) (A) (A)
                 (A) (A) (A) (A) (A) (A) (A) (A) (A) (A) (A) (A)
                 (A) (A) (A) (A) (A) (A) (A) (A) (A) (A) (A) (A)
                 (A) (A) (A) (A) (A) (A) (A) (A) (A) (A) (A) (A)
                 (A) (A) (A) (A) (A) (A) (A) (A) (A) (A) (A) (A)
                 (A) (A) (A) (A) (A) (A) (A) (A) (A) (A) (A) (A)
                 (A) (A) (A) (A) (A) (A) (A) (A) (A) (A) (A) (A)
                 (A) (A) (A) (A) (A) (A) (A) (A) (A) (A) (A) (A)
                 (A) (A) (A) (A) (A) (A) (A) (A) (A) (A) (A) (A)
                 (A) (A) (A) (A) (A) (A) (A) (A) (A) (A) (A) (A)
                 (A) (A) (A) (A) (A) (A) (A) (A) (A) (A) (A) (A)
                 (A) (A) (A) (A) (A) (A) (A) (A) (A) (A) (A) (A)
                 (A) (A) (A) (A) (A) (A) (A) (A) (A) (A) (A) (A)
                 (A) (A) (A) (A) (A) (A) (A) (A) (A) (A) (A) (A)
                 (A) (A) (A) (A) (A) (A) (A) (A) (A) (A) (A) (A)
                 (A) (A) (A) (A) (A) (A) (A) (A) (A) (A) (A) (A)
                 (A)
 The electronic state is 1-A.
 Alpha  occ. eigenvalues --  -20.61488 -20.55112 -15.54223 -11.38736 -11.27439
 Alpha  occ. eigenvalues --   -1.47275  -1.36921  -1.19144  -0.98046  -0.81316
 Alpha  occ. eigenvalues --   -0.72058  -0.70915  -0.66970  -0.63086  -0.60114
 Alpha  occ. eigenvalues --   -0.57525  -0.56265  -0.48940  -0.45985  -0.40139
 Alpha virt. eigenvalues --    0.13503   0.15114   0.17347   0.18657   0.21850
 Alpha virt. eigenvalues --    0.22877   0.31614   0.32790   0.36150   0.40603
 Alpha virt. eigenvalues --    0.45032   0.47479   0.49358   0.50322   0.55390
 Alpha virt. eigenvalues --    0.57034   0.58172   0.58638   0.61518   0.63379
 Alpha virt. eigenvalues --    0.65293   0.67560   0.68998   0.70509   0.71480
 Alpha virt. eigenvalues --    0.72174   0.75673   0.79095   0.79539   0.79846
 Alpha virt. eigenvalues --    0.85973   0.91269   0.91918   0.94461   0.97104
 Alpha virt. eigenvalues --    1.00091   1.04006   1.07901   1.11267   1.13831
 Alpha virt. eigenvalues --    1.19610   1.21813   1.24407   1.26357   1.28981
 Alpha virt. eigenvalues --    1.31737   1.33724   1.34637   1.37822   1.42112
 Alpha virt. eigenvalues --    1.45260   1.47907   1.50805   1.52227   1.53404
 Alpha virt. eigenvalues --    1.56698   1.58893   1.59947   1.69526   1.78795
 Alpha virt. eigenvalues --    1.79914   1.83013   1.86007   1.91213   1.97251
 Alpha virt. eigenvalues --    1.99561   2.02196   2.04137   2.19018   2.21995
 Alpha virt. eigenvalues --    2.27283   2.27808   2.30433   2.36297   2.38215
 Alpha virt. eigenvalues --    2.50507   2.58769   2.60710   2.69169   2.71400
 Alpha virt. eigenvalues --    2.72257   2.79260   2.81626   2.86971   2.91851
 Alpha virt. eigenvalues --    2.97628   3.03218   3.05083   3.08414   3.17230
 Alpha virt. eigenvalues --    3.21304   3.21865   3.23275   3.24810   3.29388
 Alpha virt. eigenvalues --    3.31696   3.32071   3.39643   3.40798   3.43619
 Alpha virt. eigenvalues --    3.47579   3.48660   3.50770   3.53940   3.58698
 Alpha virt. eigenvalues --    3.59532   3.62705   3.65287   3.66769   3.69389
 Alpha virt. eigenvalues --    3.72694   3.75926   3.77988   3.78995   3.80494
 Alpha virt. eigenvalues --    3.84370   3.88710   3.93510   3.94989   3.97207
 Alpha virt. eigenvalues --    3.99921   4.00519   4.03010   4.07009   4.09996
 Alpha virt. eigenvalues --    4.15299   4.19275   4.22084   4.25265   4.27211
 Alpha virt. eigenvalues --    4.31550   4.34139   4.34697   4.36170   4.40983
 Alpha virt. eigenvalues --    4.44699   4.45294   4.46972   4.50709   4.55198
 Alpha virt. eigenvalues --    4.59783   4.63662   4.65005   4.70353   4.74082
 Alpha virt. eigenvalues --    4.79212   4.81965   4.98094   5.00751   5.06103
 Alpha virt. eigenvalues --    5.08949   5.12865   5.18707   5.22606   5.33294
 Alpha virt. eigenvalues --    5.34793   5.40283   5.44163   5.45726   5.54393
 Alpha virt. eigenvalues --    5.60291   5.61581   5.62256   5.71822   5.72608
 Alpha virt. eigenvalues --    5.75045   5.84862   5.87995   5.96489   5.98977
 Alpha virt. eigenvalues --    6.00599   6.06932   6.11672   6.14749   6.19603
 Alpha virt. eigenvalues --    6.24800   6.27196   6.36780   6.43169   6.54448
 Alpha virt. eigenvalues --    6.60477   6.68771   6.84362   6.84915   6.95380
 Alpha virt. eigenvalues --    6.97139   7.01684   7.05756   7.16382   7.20151
 Alpha virt. eigenvalues --    7.24241   7.25620   7.36145   7.37120   7.46303
 Alpha virt. eigenvalues --    7.46978   7.64156   7.82310   7.99566   8.30910
 Alpha virt. eigenvalues --   10.44385  11.33595  11.37071  11.51332  11.59745
 Alpha virt. eigenvalues --   11.90711  13.21798  13.49382  14.76171  14.86321
 Alpha virt. eigenvalues --   14.95952  15.05094  15.06807  15.09875  15.36921
 Alpha virt. eigenvalues --   15.55697  15.67484  15.70291  15.89316  16.09589
 Alpha virt. eigenvalues --   16.25383  17.83061  19.04768  19.16008  19.39100
 Alpha virt. eigenvalues --   19.63959  20.17145  20.30784  21.98033  21.98491
 Alpha virt. eigenvalues --   22.06044  22.38350  22.58633  22.87361  23.16032
 Alpha virt. eigenvalues --   30.04378  30.08575  30.09940  30.17186  30.19884
 Alpha virt. eigenvalues --   30.23385  30.30340  30.37539  30.50379  30.58347
 Alpha virt. eigenvalues --   50.33428  50.93036  51.03313  51.13810  51.19874
 Alpha virt. eigenvalues --   51.30433  62.73942  63.28825  70.36763  70.80569
 Alpha virt. eigenvalues --   71.02630  83.56330  90.42398  90.52001  90.68263
 Alpha virt. eigenvalues --   90.88165  91.31188  91.41521 107.99827 108.30801
          Condensed to atoms (all electrons):
               1          2          3          4          5          6
     1  C    4.082177   0.438268   0.726637  -0.035042   0.365222  -0.043815
     2  O    0.438268   7.742431  -0.080455   0.334082  -0.079715   0.001996
     3  O    0.726637  -0.080455   7.888091   0.004768  -0.086019  -0.007101
     4  H   -0.035042   0.334082   0.004768   0.442307   0.012611  -0.000444
     5  C    0.365222  -0.079715  -0.086019   0.012611   4.670458   0.357696
     6  N   -0.043815   0.001996  -0.007101  -0.000444   0.357696   6.307222
     7  H   -0.021681   0.001621  -0.000179  -0.000699   0.420604  -0.062329
     8  H   -0.022627   0.003895   0.002396  -0.000558   0.399679  -0.035422
     9  H    0.005988  -0.000173  -0.000291   0.000043  -0.033814   0.398171
    10  H   -0.015266   0.000802   0.017004  -0.000179  -0.039022   0.402332
               7          8          9         10
     1  C   -0.021681  -0.022627   0.005988  -0.015266
     2  O    0.001621   0.003895  -0.000173   0.000802
     3  O   -0.000179   0.002396  -0.000291   0.017004
     4  H   -0.000699  -0.000558   0.000043  -0.000179
     5  C    0.420604   0.399679  -0.033814  -0.039022
     6  N   -0.062329  -0.035422   0.398171   0.402332
     7  H    0.665880  -0.048769  -0.007504   0.000233
     8  H   -0.048769   0.621633  -0.000863   0.007195
     9  H   -0.007504  -0.000863   0.567268  -0.035731
    10  H    0.000233   0.007195  -0.035731   0.525444
 Mulliken charges:
               1
     1  C    0.520139
     2  O   -0.362751
     3  O   -0.464850
     4  H    0.243112
     5  C    0.012299
     6  N   -0.318306
     7  H    0.052823
     8  H    0.073440
     9  H    0.106906
    10  H    0.137187
 Sum of Mulliken charges =  -0.00000
 Mulliken charges with hydrogens summed into heavy atoms:
               1
     1  C    0.520139
     2  O   -0.119639
     3  O   -0.464850
     5  C    0.138563
     6  N   -0.074213
 Electronic spatial extent (au):  <R**2>=            413.9047
 Charge=             -0.0000 electrons
 Dipole moment (field-independent basis, Debye):
    X=              0.0913    Y=             -1.7398    Z=              1.3224  Tot=              2.1873
 Quadrupole moment (field-independent basis, Debye-Ang):
   XX=            -23.3333   YY=            -33.0289   ZZ=            -30.1689
   XY=              1.1734   XZ=             -3.2981   YZ=              0.1006
 Traceless Quadrupole moment (field-independent basis, Debye-Ang):
   XX=              5.5104   YY=             -4.1852   ZZ=             -1.3252
   XY=              1.1734   XZ=             -3.2981   YZ=              0.1006
 Octapole moment (field-independent basis, Debye-Ang**2):
  XXX=             14.3529  YYY=             -2.5951  ZZZ=              1.6336  XYY=             -6.1759
  XXY=              2.6821  XXZ=              6.7277  XZZ=              4.1569  YZZ=             -0.3614
  YYZ=             -0.0813  XYZ=             -0.7268
 Hexadecapole moment (field-independent basis, Debye-Ang**3):
 XXXX=           -239.0028 YYYY=           -140.3922 ZZZZ=            -35.7878 XXXY=              8.3044
 XXXZ=            -19.7097 YYYX=             -5.3266 YYYZ=              1.6738 ZZZX=             -3.8448
 ZZZY=              0.0962 XXYY=            -77.4093 XXZZ=            -65.7592 YYZZ=            -27.6827
 XXYZ=              0.3245 YYXZ=             -1.0044 ZZXY=              0.8512
 N-N= 1.805543247289D+02 E-N=-1.027640990058D+03  KE= 2.826724412766D+02
 Leave Link  601 at Thu Apr 15 17:54:50 2021, MaxMem= 13421772800 cpu:              29.6 elap:               4.7
 (Enter /home/hexuye/G16_1123/data2/software/Gaussian/g16_from_xuruiqin/g16/l9999.exe)
 Unable to Open any file for archive entry.
 1\1\GINC-CU38\SP\RCCSD(T)-Full\Gen\C2H5N1O2\ROOT\15-Apr-2021\0\\#p CCS
 D(T)=FULL/gen\\start best geom PCCP paper\\0,1\C\O,1,1.34608\O,1,1.202
 74,2,123.21263\H,2,0.96513,1,106.9601,3,1.12063,0\C,1,1.50353,3,125.17
 128,2,178.03326,0\N,5,1.44879,1,110.05161,3,18.04528,0\H,5,1.09682,1,1
 05.6396,3,-106.18775,0\H,5,1.08963,1,108.30581,3,139.44601,0\H,6,1.008
 59,5,111.64684,1,-155.36007,0\H,6,1.01187,5,110.28053,1,-34.31555,0\\V
 ersion=ES64L-G16RevC.01\State=1-A\HF=-282.9469226\MP2=-284.2168946\MP3
 =-284.2347208\MP4D=-284.2559712\MP4DQ=-284.2317315\MP4SDQ=-284.2443227
 \CCSD=-284.2412048\CCSD(T)=-284.2870388\RMSD=6.163e-09\PG=C01 [X(C2H5N
 1O2)]\\@
 The archive entry for this job was punched.


 IN THE WOODS WE RETURN TO REASON AND FAITH.

                                 -- EMERSON
 Job cpu time:       2 days 16 hours 17 minutes 41.7 seconds.
 Elapsed time:       0 days  1 hours  1 minutes 28.4 seconds.
 File lengths (MBytes):  RWF= 116723 Int=      0 D2E=      0 Chk=      7 Scr=      2
 Normal termination of Gaussian 16 at Thu Apr 15 17:54:56 2021.
