 Entering Gaussian System, Link 0=g16
 Input=tct_Best_geom_CCSDT_cc-pwCVTZ-fc.gjf
 Output=tct_Best_geom_CCSDT_cc-pwCVTZ-fc.log
 AtFile(1): /home/hexuye/glycine/cc-pwcvtz.0.gbs
            H     0
            S    5   1.00
                  3.387000D+01           6.068000D-03
                  5.095000D+00           4.530800D-02
                  1.159000D+00           2.028220D-01
                  3.258000D-01           5.039030D-01
                  1.027000D-01           3.834210D-01
            S    1   1.00
                  3.258000D-01           1.000000D+00
            S    1   1.00
                  1.027000D-01           1.000000D+00
            P    1   1.00
                  1.407000D+00           1.000000D+00
            P    1   1.00
                  3.880000D-01           1.000000D+00
            D    1   1.00
                  1.057000D+00           1.0000000
            ****
            C     0
            S    10   1.00
               8236.0000000              0.0005310
               1235.0000000              0.0041080
                280.8000000              0.0210870
                 79.2700000              0.0818530
                 25.5900000              0.2348170
                  8.9970000              0.4344010
                  3.3190000              0.3461290
                  0.9059000              0.0393780
                  0.3643000             -0.0089830
                  0.1285000              0.0023850
            S    10   1.00
               8236.0000000             -0.0001130
               1235.0000000             -0.0008780
                280.8000000             -0.0045400
                 79.2700000             -0.0181330
                 25.5900000             -0.0557600
                  8.9970000             -0.1268950
                  3.3190000             -0.1703520
                  0.9059000              0.1403820
                  0.3643000              0.5986840
                  0.1285000              0.3953890
            S    1   1.00
                  8.828000               1.000000
            S    1   1.00
                  3.474000               1.000000
            S    1   1.00
                  0.9059000              1.0000000
            S    1   1.00
                  0.1285000              1.0000000
            P    5   1.00
                 18.7100000              0.0140310
                  4.1330000              0.0868660
                  1.2000000              0.2902160
                  0.3827000              0.5010080
                  0.1209000              0.3434060
            P    1   1.00
                 21.55200                1.000000
            P    1   1.00
                  5.442000               1.000000
            P    1   1.00
                  0.3827000              1.0000000
            P    1   1.00
                  0.1209000              1.0000000
            D    1   1.00
                  4.950000               1.000000
            D    1   1.00
                  1.0970000              1.0000000
            D    1   1.00
                  0.3180000              1.0000000
            F    1   1.00
                  0.7610000              1.0000000
            ****
            N     0
            S    10   1.00
              11420.0000000              0.0005230
               1712.0000000              0.0040450
                389.3000000              0.0207750
                110.0000000              0.0807270
                 35.5700000              0.2330740
                 12.5400000              0.4335010
                  4.6440000              0.3474720
                  1.2930000              0.0412620
                  0.5118000             -0.0085080
                  0.1787000              0.0023840
            S    10   1.00
              11420.0000000             -0.0001150
               1712.0000000             -0.0008950
                389.3000000             -0.0046240
                110.0000000             -0.0185280
                 35.5700000             -0.0573390
                 12.5400000             -0.1320760
                  4.6440000             -0.1725100
                  1.2930000              0.1518140
                  0.5118000              0.5999440
                  0.1787000              0.3874620
            S    1   1.00
                 11.80700                1.000000
            S    1   1.00
                  4.733000               1.000000
            S    1   1.00
                  1.2930000              1.0000000
            S    1   1.00
                  0.1787000              1.0000000
            P    5   1.00
                 26.6300000              0.0146700
                  5.9480000              0.0917640
                  1.7420000              0.2986830
                  0.5550000              0.4984870
                  0.1725000              0.3370230
            P    1   1.00
                 29.81800                1.000000
            P    1   1.00
                  7.743000               1.000000
            P    1   1.00
                  0.5550000              1.0000000
            P    1   1.00
                  0.1725000              1.0000000
            D    1   1.00
                  7.352000               1.000000
            D    1   1.00
                  1.6540000              1.0000000
            D    1   1.00
                  0.4690000              1.0000000
            F    1   1.00
                  1.0930000              1.0000000
            ****
            O     0
            S    10   1.00
              15330.0000000              0.0005080
               2299.0000000              0.0039290
                522.4000000              0.0202430
                147.3000000              0.0791810
                 47.5500000              0.2306870
                 16.7600000              0.4331180
                  6.2070000              0.3502600
                  1.7520000              0.0427280
                  0.6882000             -0.0081540
                  0.2384000              0.0023810
            S    10   1.00
              15330.0000000             -0.0001150
               2299.0000000             -0.0008950
                522.4000000             -0.0046360
                147.3000000             -0.0187240
                 47.5500000             -0.0584630
                 16.7600000             -0.1364630
                  6.2070000             -0.1757400
                  1.7520000              0.1609340
                  0.6882000              0.6034180
                  0.2384000              0.3787650
            S    1   1.00
                 15.38100                1.000000
            S    1   1.00
                  6.245000               1.000000
            S    1   1.00
                  1.7520000              1.0000000
            S    1   1.00
                  0.2384000              1.0000000
            P    5   1.00
                 34.4600000              0.0159280
                  7.7490000              0.0997400
                  2.2800000              0.3104920
                  0.7156000              0.4910260
                  0.2140000              0.3363370
            P    1   1.00
                 38.48400                1.000000
            P    1   1.00
                 10.21600                1.000000
            P    1   1.00
                  0.7156000              1.0000000
            P    1   1.00
                  0.2140000              1.0000000
            D    1   1.00
                 10.23800                1.000000
            D    1   1.00
                  2.3140000              1.0000000
            D    1   1.00
                  0.6450000              1.0000000
            F    1   1.00
                  1.4280000              1.0000000
            ****
 Initial command:
 /home/hexuye/G16_1123/data2/software/Gaussian/g16_from_xuruiqin/g16/l1.exe "/home/hexuye/scratch/Gau-260972.inp" -scrdir="/home/hexuye/scratch/"
 Entering Link 1 = /home/hexuye/G16_1123/data2/software/Gaussian/g16_from_xuruiqin/g16/l1.exe PID=    260973.
  
 Copyright (c) 1988-2019, Gaussian, Inc.  All Rights Reserved.
  
 This is part of the Gaussian(R) 16 program.  It is based on
 the Gaussian(R) 09 system (copyright 2009, Gaussian, Inc.),
 the Gaussian(R) 03 system (copyright 2003, Gaussian, Inc.),
 the Gaussian(R) 98 system (copyright 1998, Gaussian, Inc.),
 the Gaussian(R) 94 system (copyright 1995, Gaussian, Inc.),
 the Gaussian 92(TM) system (copyright 1992, Gaussian, Inc.),
 the Gaussian 90(TM) system (copyright 1990, Gaussian, Inc.),
 the Gaussian 88(TM) system (copyright 1988, Gaussian, Inc.),
 the Gaussian 86(TM) system (copyright 1986, Carnegie Mellon
 University), and the Gaussian 82(TM) system (copyright 1983,
 Carnegie Mellon University). Gaussian is a federally registered
 trademark of Gaussian, Inc.
  
 This software contains proprietary and confidential information,
 including trade secrets, belonging to Gaussian, Inc.
  
 This software is provided under written license and may be
 used, copied, transmitted, or stored only in accord with that
 written license.
  
 The following legend is applicable only to US Government
 contracts under FAR:
  
                    RESTRICTED RIGHTS LEGEND
  
 Use, reproduction and disclosure by the US Government is
 subject to restrictions as set forth in subparagraphs (a)
 and (c) of the Commercial Computer Software - Restricted
 Rights clause in FAR 52.227-19.
  
 Gaussian, Inc.
 340 Quinnipiac St., Bldg. 40, Wallingford CT 06492
  
  
 ---------------------------------------------------------------
 Warning -- This program may not be used in any manner that
 competes with the business of Gaussian, Inc. or will provide
 assistance to any competitor of Gaussian, Inc.  The licensee
 of this program is prohibited from giving any competitor of
 Gaussian, Inc. access to this program.  By using this program,
 the user acknowledges that Gaussian, Inc. is engaged in the
 business of creating and licensing software in the field of
 computational chemistry and represents and warrants to the
 licensee that it is not a competitor of Gaussian, Inc. and that
 it will not use this program in any manner prohibited above.
 ---------------------------------------------------------------
  

 Cite this work as:
 Gaussian 16, Revision C.01,
 M. J. Frisch, G. W. Trucks, H. B. Schlegel, G. E. Scuseria, 
 M. A. Robb, J. R. Cheeseman, G. Scalmani, V. Barone, 
 G. A. Petersson, H. Nakatsuji, X. Li, M. Caricato, A. V. Marenich, 
 J. Bloino, B. G. Janesko, R. Gomperts, B. Mennucci, H. P. Hratchian, 
 J. V. Ortiz, A. F. Izmaylov, J. L. Sonnenberg, D. Williams-Young, 
 F. Ding, F. Lipparini, F. Egidi, J. Goings, B. Peng, A. Petrone, 
 T. Henderson, D. Ranasinghe, V. G. Zakrzewski, J. Gao, N. Rega, 
 G. Zheng, W. Liang, M. Hada, M. Ehara, K. Toyota, R. Fukuda, 
 J. Hasegawa, M. Ishida, T. Nakajima, Y. Honda, O. Kitao, H. Nakai, 
 T. Vreven, K. Throssell, J. A. Montgomery, Jr., J. E. Peralta, 
 F. Ogliaro, M. J. Bearpark, J. J. Heyd, E. N. Brothers, K. N. Kudin, 
 V. N. Staroverov, T. A. Keith, R. Kobayashi, J. Normand, 
 K. Raghavachari, A. P. Rendell, J. C. Burant, S. S. Iyengar, 
 J. Tomasi, M. Cossi, J. M. Millam, M. Klene, C. Adamo, R. Cammi, 
 J. W. Ochterski, R. L. Martin, K. Morokuma, O. Farkas, 
 J. B. Foresman, and D. J. Fox, Gaussian, Inc., Wallingford CT, 2019.
 
 ******************************************
 Gaussian 16:  ES64L-G16RevC.01  3-Jul-2019
                15-Apr-2021 
 ******************************************
 %chk=tct_Best_geom_CCSDT_cc-pwCVTZ-fc.chk
 %nprocshared=64
 Will use up to   64 processors via shared memory.
 %mem=100GB
 --------------
 #p CCSD(T)/gen
 --------------
 1/38=1,172=1/1;
 2/12=2,17=6,18=5,40=1/2;
 3/5=7,11=9,25=1,30=1/1,2,3;
 4//1;
 5/5=2,38=5/2;
 8/6=4,9=120000,10=1/1,4;
 9/5=7,14=2/13;
 6/7=2,8=2,9=2,10=2/1;
 99/5=1,9=1/99;
 Leave Link    1 at Thu Apr 15 13:38:12 2021, MaxMem= 13421772800 cpu:               4.2 elap:               0.1
 (Enter /home/hexuye/G16_1123/data2/software/Gaussian/g16_from_xuruiqin/g16/l101.exe)
 --------------------------
 start best geom PCCP paper
 --------------------------
 Symbolic Z-matrix:
 Charge =  0 Multiplicity = 1
 C
 O                    1    B1
 O                    1    B2       2    A1
 H                    2    B3       1    A2       3    D1       0
 C                    1    B4       3    A3       2    D2       0
 N                    5    B5       1    A4       3    D3       0
 H                    5    B6       1    A5       3    D4       0
 H                    5    B7       1    A6       3    D5       0
 H                    6    B8       5    A7       1    D6       0
 H                    6    B9       5    A8       1    D7       0
       Variables:
  B1                    1.34824                  
  B2                    1.20339                  
  B3                    0.96562                  
  B4                    1.51736                  
  B5                    1.44458                  
  B6                    1.0899                   
  B7                    1.0899                   
  B8                    1.00975                  
  B9                    1.00975                  
  A1                  122.72896                  
  A2                  106.37597                  
  A3                  123.80161                  
  A4                  118.62999                  
  A5                  105.95621                  
  A6                  105.95621                  
  A7                  111.34671                  
  A8                  111.34671                  
  D1                    0.                       
  D2                  180.                       
  D3                  180.                       
  D4                   56.19793                  
  D5                  -56.19793                  
  D6                   59.71795                  
  D7                  -59.71795                  
 
 ITRead=  0  0  0  0  0  0  0  0  0  0
 MicOpt= -1 -1 -1 -1 -1 -1 -1 -1 -1 -1
 NAtoms=     10 NQM=       10 NQMF=       0 NMMI=      0 NMMIF=      0
                NMic=       0 NMicF=      0.
                    Isotopes and Nuclear Properties:
 (Nuclear quadrupole moments (NQMom) in fm**2, nuclear magnetic moments (NMagM)
  in nuclear magnetons)

  Atom         1           2           3           4           5           6           7           8           9          10
 IAtWgt=          12          16          16           1          12          14           1           1           1           1
 AtmWgt=  12.0000000  15.9949146  15.9949146   1.0078250  12.0000000  14.0030740   1.0078250   1.0078250   1.0078250   1.0078250
 NucSpn=           0           0           0           1           0           2           1           1           1           1
 AtZEff=  -0.0000000  -0.0000000  -0.0000000  -0.0000000  -0.0000000  -0.0000000  -0.0000000  -0.0000000  -0.0000000  -0.0000000
 NQMom=    0.0000000   0.0000000   0.0000000   0.0000000   0.0000000   2.0440000   0.0000000   0.0000000   0.0000000   0.0000000
 NMagM=    0.0000000   0.0000000   0.0000000   2.7928460   0.0000000   0.4037610   2.7928460   2.7928460   2.7928460   2.7928460
 AtZNuc=   6.0000000   8.0000000   8.0000000   1.0000000   6.0000000   7.0000000   1.0000000   1.0000000   1.0000000   1.0000000
 Leave Link  101 at Thu Apr 15 13:38:12 2021, MaxMem= 13421772800 cpu:              13.2 elap:               0.3
 (Enter /home/hexuye/G16_1123/data2/software/Gaussian/g16_from_xuruiqin/g16/l202.exe)
                          Input orientation:                          
 ---------------------------------------------------------------------
 Center     Atomic      Atomic             Coordinates (Angstroms)
 Number     Number       Type             X           Y           Z
 ---------------------------------------------------------------------
      1          6           0        0.000000    0.000000    0.000000
      2          8           0        0.000000    0.000000    1.348240
      3          8           0        1.012337    0.000000   -0.650632
      4          1           0        0.926448    0.000000    1.620486
      5          6           0       -1.391833    0.000000   -0.604303
      6          7           0       -2.531719    0.000000    0.283092
      7          1           0       -1.434486   -0.870775   -1.258379
      8          1           0       -1.434486    0.870775   -1.258379
      9          1           0       -2.530429    0.812151    0.883095
     10          1           0       -2.530429   -0.812151    0.883095
 ---------------------------------------------------------------------
                    Distance matrix (angstroms):
                    1          2          3          4          5
     1  C    0.000000
     2  O    1.348240   0.000000
     3  O    1.203390   2.240606   0.000000
     4  H    1.866623   0.965621   2.272741   0.000000
     5  C    1.517360   2.397837   2.404616   3.213116   0.000000
     6  N    2.547497   2.746660   3.664993   3.707768   1.444580
     7  H    2.097502   3.100074   2.667311   3.823627   1.089900
     8  H    2.097502   3.100074   2.667311   3.823627   1.089900
     9  H    2.800449   2.697966   3.945009   3.626752   2.041653
    10  H    2.800449   2.697966   3.945009   3.626752   2.041653
                    6          7          8          9         10
     6  N    0.000000
     7  H    2.082859   0.000000
     8  H    2.082859   1.741549   0.000000
     9  H    1.009750   2.935854   2.406333   0.000000
    10  H    1.009750   2.406333   2.935854   1.624303   0.000000
 Stoichiometry    C2H5NO2
 Framework group  CS[SG(C2HNO2),X(H4)]
 Deg. of freedom    15
 Full point group                 CS      NOp   2
 Largest Abelian subgroup         CS      NOp   2
 Largest concise Abelian subgroup CS      NOp   2
                         Standard orientation:                         
 ---------------------------------------------------------------------
 Center     Atomic      Atomic             Coordinates (Angstroms)
 Number     Number       Type             X           Y           Z
 ---------------------------------------------------------------------
      1          6           0       -0.000000    0.635900   -0.000000
      2          8           0       -1.323949    0.381124   -0.000000
      3          8           0        0.447609    1.752947   -0.000000
      4          1           0       -1.766360    1.239435   -0.000000
      5          6           0        0.856429   -0.616662    0.000000
      6          7           0        0.200424   -1.903701    0.000000
      7          1           0        1.506780   -0.534947    0.870775
      8          1           0        1.506780   -0.534947   -0.870775
      9          1           0       -0.389012   -2.015816   -0.812151
     10          1           0       -0.389012   -2.015816    0.812151
 ---------------------------------------------------------------------
 Rotational constants (GHZ):          10.0492564           4.0169293           2.9660702
 Leave Link  202 at Thu Apr 15 13:38:13 2021, MaxMem= 13421772800 cpu:               2.8 elap:               0.1
 (Enter /home/hexuye/G16_1123/data2/software/Gaussian/g16_from_xuruiqin/g16/l301.exe)
 General basis read from cards:  (5D, 7F)
 Centers:       4      7      8      9     10
 S 5 1.00
     Exponent=  3.3870000000D+01 Coefficients=  6.0680000000D-03
     Exponent=  5.0950000000D+00 Coefficients=  4.5308000000D-02
     Exponent=  1.1590000000D+00 Coefficients=  2.0282200000D-01
     Exponent=  3.2580000000D-01 Coefficients=  5.0390300000D-01
     Exponent=  1.0270000000D-01 Coefficients=  3.8342100000D-01
 S 1 1.00
     Exponent=  3.2580000000D-01 Coefficients=  1.0000000000D+00
 S 1 1.00
     Exponent=  1.0270000000D-01 Coefficients=  1.0000000000D+00
 P 1 1.00
     Exponent=  1.4070000000D+00 Coefficients=  1.0000000000D+00
 P 1 1.00
     Exponent=  3.8800000000D-01 Coefficients=  1.0000000000D+00
 D 1 1.00
     Exponent=  1.0570000000D+00 Coefficients=  1.0000000000D+00
 ****
 Centers:       1      5
 S 10 1.00
     Exponent=  8.2360000000D+03 Coefficients=  5.3100000000D-04
     Exponent=  1.2350000000D+03 Coefficients=  4.1080000000D-03
     Exponent=  2.8080000000D+02 Coefficients=  2.1087000000D-02
     Exponent=  7.9270000000D+01 Coefficients=  8.1853000000D-02
     Exponent=  2.5590000000D+01 Coefficients=  2.3481700000D-01
     Exponent=  8.9970000000D+00 Coefficients=  4.3440100000D-01
     Exponent=  3.3190000000D+00 Coefficients=  3.4612900000D-01
     Exponent=  9.0590000000D-01 Coefficients=  3.9378000000D-02
     Exponent=  3.6430000000D-01 Coefficients= -8.9830000000D-03
     Exponent=  1.2850000000D-01 Coefficients=  2.3850000000D-03
 S 10 1.00
     Exponent=  8.2360000000D+03 Coefficients= -1.1300000000D-04
     Exponent=  1.2350000000D+03 Coefficients= -8.7800000000D-04
     Exponent=  2.8080000000D+02 Coefficients= -4.5400000000D-03
     Exponent=  7.9270000000D+01 Coefficients= -1.8133000000D-02
     Exponent=  2.5590000000D+01 Coefficients= -5.5760000000D-02
     Exponent=  8.9970000000D+00 Coefficients= -1.2689500000D-01
     Exponent=  3.3190000000D+00 Coefficients= -1.7035200000D-01
     Exponent=  9.0590000000D-01 Coefficients=  1.4038200000D-01
     Exponent=  3.6430000000D-01 Coefficients=  5.9868400000D-01
     Exponent=  1.2850000000D-01 Coefficients=  3.9538900000D-01
 S 1 1.00
     Exponent=  8.8280000000D+00 Coefficients=  1.0000000000D+00
 S 1 1.00
     Exponent=  3.4740000000D+00 Coefficients=  1.0000000000D+00
 S 1 1.00
     Exponent=  9.0590000000D-01 Coefficients=  1.0000000000D+00
 S 1 1.00
     Exponent=  1.2850000000D-01 Coefficients=  1.0000000000D+00
 P 5 1.00
     Exponent=  1.8710000000D+01 Coefficients=  1.4031000000D-02
     Exponent=  4.1330000000D+00 Coefficients=  8.6866000000D-02
     Exponent=  1.2000000000D+00 Coefficients=  2.9021600000D-01
     Exponent=  3.8270000000D-01 Coefficients=  5.0100800000D-01
     Exponent=  1.2090000000D-01 Coefficients=  3.4340600000D-01
 P 1 1.00
     Exponent=  2.1552000000D+01 Coefficients=  1.0000000000D+00
 P 1 1.00
     Exponent=  5.4420000000D+00 Coefficients=  1.0000000000D+00
 P 1 1.00
     Exponent=  3.8270000000D-01 Coefficients=  1.0000000000D+00
 P 1 1.00
     Exponent=  1.2090000000D-01 Coefficients=  1.0000000000D+00
 D 1 1.00
     Exponent=  4.9500000000D+00 Coefficients=  1.0000000000D+00
 D 1 1.00
     Exponent=  1.0970000000D+00 Coefficients=  1.0000000000D+00
 D 1 1.00
     Exponent=  3.1800000000D-01 Coefficients=  1.0000000000D+00
 F 1 1.00
     Exponent=  7.6100000000D-01 Coefficients=  1.0000000000D+00
 ****
 Centers:       6
 S 10 1.00
     Exponent=  1.1420000000D+04 Coefficients=  5.2300000000D-04
     Exponent=  1.7120000000D+03 Coefficients=  4.0450000000D-03
     Exponent=  3.8930000000D+02 Coefficients=  2.0775000000D-02
     Exponent=  1.1000000000D+02 Coefficients=  8.0727000000D-02
     Exponent=  3.5570000000D+01 Coefficients=  2.3307400000D-01
     Exponent=  1.2540000000D+01 Coefficients=  4.3350100000D-01
     Exponent=  4.6440000000D+00 Coefficients=  3.4747200000D-01
     Exponent=  1.2930000000D+00 Coefficients=  4.1262000000D-02
     Exponent=  5.1180000000D-01 Coefficients= -8.5080000000D-03
     Exponent=  1.7870000000D-01 Coefficients=  2.3840000000D-03
 S 10 1.00
     Exponent=  1.1420000000D+04 Coefficients= -1.1500000000D-04
     Exponent=  1.7120000000D+03 Coefficients= -8.9500000000D-04
     Exponent=  3.8930000000D+02 Coefficients= -4.6240000000D-03
     Exponent=  1.1000000000D+02 Coefficients= -1.8528000000D-02
     Exponent=  3.5570000000D+01 Coefficients= -5.7339000000D-02
     Exponent=  1.2540000000D+01 Coefficients= -1.3207600000D-01
     Exponent=  4.6440000000D+00 Coefficients= -1.7251000000D-01
     Exponent=  1.2930000000D+00 Coefficients=  1.5181400000D-01
     Exponent=  5.1180000000D-01 Coefficients=  5.9994400000D-01
     Exponent=  1.7870000000D-01 Coefficients=  3.8746200000D-01
 S 1 1.00
     Exponent=  1.1807000000D+01 Coefficients=  1.0000000000D+00
 S 1 1.00
     Exponent=  4.7330000000D+00 Coefficients=  1.0000000000D+00
 S 1 1.00
     Exponent=  1.2930000000D+00 Coefficients=  1.0000000000D+00
 S 1 1.00
     Exponent=  1.7870000000D-01 Coefficients=  1.0000000000D+00
 P 5 1.00
     Exponent=  2.6630000000D+01 Coefficients=  1.4670000000D-02
     Exponent=  5.9480000000D+00 Coefficients=  9.1764000000D-02
     Exponent=  1.7420000000D+00 Coefficients=  2.9868300000D-01
     Exponent=  5.5500000000D-01 Coefficients=  4.9848700000D-01
     Exponent=  1.7250000000D-01 Coefficients=  3.3702300000D-01
 P 1 1.00
     Exponent=  2.9818000000D+01 Coefficients=  1.0000000000D+00
 P 1 1.00
     Exponent=  7.7430000000D+00 Coefficients=  1.0000000000D+00
 P 1 1.00
     Exponent=  5.5500000000D-01 Coefficients=  1.0000000000D+00
 P 1 1.00
     Exponent=  1.7250000000D-01 Coefficients=  1.0000000000D+00
 D 1 1.00
     Exponent=  7.3520000000D+00 Coefficients=  1.0000000000D+00
 D 1 1.00
     Exponent=  1.6540000000D+00 Coefficients=  1.0000000000D+00
 D 1 1.00
     Exponent=  4.6900000000D-01 Coefficients=  1.0000000000D+00
 F 1 1.00
     Exponent=  1.0930000000D+00 Coefficients=  1.0000000000D+00
 ****
 Centers:       2      3
 S 10 1.00
     Exponent=  1.5330000000D+04 Coefficients=  5.0800000000D-04
     Exponent=  2.2990000000D+03 Coefficients=  3.9290000000D-03
     Exponent=  5.2240000000D+02 Coefficients=  2.0243000000D-02
     Exponent=  1.4730000000D+02 Coefficients=  7.9181000000D-02
     Exponent=  4.7550000000D+01 Coefficients=  2.3068700000D-01
     Exponent=  1.6760000000D+01 Coefficients=  4.3311800000D-01
     Exponent=  6.2070000000D+00 Coefficients=  3.5026000000D-01
     Exponent=  1.7520000000D+00 Coefficients=  4.2728000000D-02
     Exponent=  6.8820000000D-01 Coefficients= -8.1540000000D-03
     Exponent=  2.3840000000D-01 Coefficients=  2.3810000000D-03
 S 10 1.00
     Exponent=  1.5330000000D+04 Coefficients= -1.1500000000D-04
     Exponent=  2.2990000000D+03 Coefficients= -8.9500000000D-04
     Exponent=  5.2240000000D+02 Coefficients= -4.6360000000D-03
     Exponent=  1.4730000000D+02 Coefficients= -1.8724000000D-02
     Exponent=  4.7550000000D+01 Coefficients= -5.8463000000D-02
     Exponent=  1.6760000000D+01 Coefficients= -1.3646300000D-01
     Exponent=  6.2070000000D+00 Coefficients= -1.7574000000D-01
     Exponent=  1.7520000000D+00 Coefficients=  1.6093400000D-01
     Exponent=  6.8820000000D-01 Coefficients=  6.0341800000D-01
     Exponent=  2.3840000000D-01 Coefficients=  3.7876500000D-01
 S 1 1.00
     Exponent=  1.5381000000D+01 Coefficients=  1.0000000000D+00
 S 1 1.00
     Exponent=  6.2450000000D+00 Coefficients=  1.0000000000D+00
 S 1 1.00
     Exponent=  1.7520000000D+00 Coefficients=  1.0000000000D+00
 S 1 1.00
     Exponent=  2.3840000000D-01 Coefficients=  1.0000000000D+00
 P 5 1.00
     Exponent=  3.4460000000D+01 Coefficients=  1.5928000000D-02
     Exponent=  7.7490000000D+00 Coefficients=  9.9740000000D-02
     Exponent=  2.2800000000D+00 Coefficients=  3.1049200000D-01
     Exponent=  7.1560000000D-01 Coefficients=  4.9102600000D-01
     Exponent=  2.1400000000D-01 Coefficients=  3.3633700000D-01
 P 1 1.00
     Exponent=  3.8484000000D+01 Coefficients=  1.0000000000D+00
 P 1 1.00
     Exponent=  1.0216000000D+01 Coefficients=  1.0000000000D+00
 P 1 1.00
     Exponent=  7.1560000000D-01 Coefficients=  1.0000000000D+00
 P 1 1.00
     Exponent=  2.1400000000D-01 Coefficients=  1.0000000000D+00
 D 1 1.00
     Exponent=  1.0238000000D+01 Coefficients=  1.0000000000D+00
 D 1 1.00
     Exponent=  2.3140000000D+00 Coefficients=  1.0000000000D+00
 D 1 1.00
     Exponent=  6.4500000000D-01 Coefficients=  1.0000000000D+00
 F 1 1.00
     Exponent=  1.4280000000D+00 Coefficients=  1.0000000000D+00
 ****
 Ernie: Thresh=  0.10000D-02 Tol=  0.10000D-05 Strict=F.
 Ernie:  35 primitive shells out of 235 were deleted.
 There are   211 symmetry adapted cartesian basis functions of A'  symmetry.
 There are   109 symmetry adapted cartesian basis functions of A"  symmetry.
 There are   183 symmetry adapted basis functions of A'  symmetry.
 There are   102 symmetry adapted basis functions of A"  symmetry.
   285 basis functions,   455 primitive gaussians,   320 cartesian basis functions
    20 alpha electrons       20 beta electrons
       nuclear repulsion energy       180.0072559301 Hartrees.
 IExCor=    0 DFT=F Ex=HF Corr=None ExCW=0 ScaHFX=  1.000000
 ScaDFX=  1.000000  1.000000  1.000000  1.000000 ScalE2=  1.000000  1.000000
 IRadAn=      5 IRanWt=     -1 IRanGd=            0 ICorTp=0 IEmpDi=  4
 NAtoms=   10 NActive=   10 NUniq=    8 SFac= 1.56D+00 NAtFMM=   60 NAOKFM=F Big=F
 Integral buffers will be    131072 words long.
 Raffenetti 1 integral format.
 Two-electron integral symmetry is turned on.
 Leave Link  301 at Thu Apr 15 13:38:13 2021, MaxMem= 13421772800 cpu:               6.9 elap:               0.2
 (Enter /home/hexuye/G16_1123/data2/software/Gaussian/g16_from_xuruiqin/g16/l302.exe)
 NPDir=0 NMtPBC=     1 NCelOv=     1 NCel=       1 NClECP=     1 NCelD=      1
         NCelK=      1 NCelE2=     1 NClLst=     1 CellRange=     0.0.
 One-electron integrals computed using PRISM.
 One-electron integral symmetry used in STVInt
 NBasis=   285 RedAO= T EigKep=  4.37D-04  NBF=   183   102
 NBsUse=   285 1.00D-06 EigRej= -1.00D+00 NBFU=   183   102
 Leave Link  302 at Thu Apr 15 13:38:13 2021, MaxMem= 13421772800 cpu:              36.6 elap:               0.6
 (Enter /home/hexuye/G16_1123/data2/software/Gaussian/g16_from_xuruiqin/g16/l303.exe)
 DipDrv:  MaxL=1.
 Leave Link  303 at Thu Apr 15 13:38:14 2021, MaxMem= 13421772800 cpu:               5.2 elap:               0.1
 (Enter /home/hexuye/G16_1123/data2/software/Gaussian/g16_from_xuruiqin/g16/l401.exe)
 ExpMin= 1.03D-01 ExpMax= 1.53D+04 ExpMxC= 5.22D+02 IAcc=3 IRadAn=         5 AccDes= 0.00D+00
 Harris functional with IExCor=  205 and IRadAn=       5 diagonalized for initial guess.
 HarFok:  IExCor=  205 AccDes= 0.00D+00 IRadAn=         5 IDoV= 1 UseB2=F ITyADJ=14
 ICtDFT=  3500011 ScaDFX=  1.000000  1.000000  1.000000  1.000000
 FoFCou: FMM=F IPFlag=           0 FMFlag=      100000 FMFlg1=           0
         NFxFlg=           0 DoJE=T BraDBF=F KetDBF=T FulRan=T
         wScrn=  0.000000 ICntrl=       500 IOpCl=  0 I1Cent=   200000004 NGrid=           0
         NMat0=    1 NMatS0=      1 NMatT0=    0 NMatD0=    1 NMtDS0=    0 NMtDT0=    0
 Petite list used in FoFCou.
 Harris En= -283.231458230104    
 JPrj=0 DoOrth=F DoCkMO=F.
 Initial guess orbital symmetries:
       Occupied  (A') (A') (A') (A') (A') (A') (A') (A') (A') (A')
                 (A") (A') (A') (A') (A") (A') (A") (A") (A') (A')
       Virtual   (A") (A') (A') (A') (A") (A') (A") (A') (A') (A')
                 (A') (A") (A") (A') (A') (A') (A") (A') (A") (A')
                 (A') (A') (A') (A") (A') (A') (A") (A') (A') (A")
                 (A') (A") (A") (A') (A') (A") (A') (A") (A') (A")
                 (A') (A') (A') (A") (A") (A') (A') (A") (A") (A')
                 (A') (A') (A") (A') (A') (A') (A") (A') (A') (A")
                 (A') (A") (A') (A') (A") (A') (A") (A') (A") (A')
                 (A') (A") (A') (A") (A') (A') (A") (A') (A') (A')
                 (A') (A") (A') (A') (A") (A') (A') (A") (A') (A")
                 (A') (A') (A") (A') (A") (A') (A") (A') (A") (A')
                 (A") (A') (A') (A") (A') (A") (A') (A") (A") (A')
                 (A") (A") (A') (A") (A') (A") (A') (A') (A") (A')
                 (A") (A') (A') (A') (A") (A") (A") (A') (A') (A")
                 (A') (A") (A') (A') (A') (A") (A') (A') (A") (A')
                 (A") (A") (A') (A') (A") (A') (A') (A') (A') (A")
                 (A') (A') (A") (A') (A") (A') (A') (A') (A") (A')
                 (A") (A') (A") (A') (A') (A') (A") (A') (A") (A')
                 (A') (A") (A') (A") (A') (A') (A') (A") (A") (A')
                 (A") (A") (A") (A') (A') (A") (A') (A") (A') (A')
                 (A") (A") (A") (A') (A') (A') (A') (A') (A') (A')
                 (A") (A') (A') (A') (A") (A') (A') (A') (A') (A")
                 (A') (A") (A') (A") (A') (A") (A') (A") (A') (A')
                 (A') (A') (A") (A") (A') (A') (A') (A') (A") (A')
                 (A') (A') (A") (A') (A') (A") (A') (A") (A") (A')
                 (A") (A') (A') (A') (A') (A") (A') (A') (A') (A")
                 (A') (A') (A') (A') (A") (A') (A') (A") (A") (A')
                 (A') (A') (A') (A') (A')
 The electronic state of the initial guess is 1-A'.
 Leave Link  401 at Thu Apr 15 13:38:14 2021, MaxMem= 13421772800 cpu:              46.3 elap:               0.8
 (Enter /home/hexuye/G16_1123/data2/software/Gaussian/g16_from_xuruiqin/g16/l502.exe)
 Keep R1 ints in memory in symmetry-blocked form, NReq=1248785029.
 FoFCou: FMM=F IPFlag=           0 FMFlag=           0 FMFlg1=           0
         NFxFlg=           0 DoJE=F BraDBF=F KetDBF=F FulRan=T
         wScrn=  0.000000 ICntrl=       600 IOpCl=  0 I1Cent=           0 NGrid=           0
         NMat0=    1 NMatS0=  40755 NMatT0=    0 NMatD0=    1 NMtDS0=    0 NMtDT0=    0
 Petite list used in FoFCou.
 Closed shell SCF:
 Using DIIS extrapolation, IDIIS=  1040.
 NGot= 13421772800 LenX= 13003266795 LenY= 13003163954
 Requested convergence on RMS density matrix=1.00D-08 within 128 cycles.
 Requested convergence on MAX density matrix=1.00D-06.
 Requested convergence on             energy=1.00D-06.
 No special actions if energy rises.

 Cycle   1  Pass 1  IDiag  1:
 E= -282.701942765295    
 DIIS: error= 4.36D-02 at cycle   1 NSaved=   1.
 NSaved= 1 IEnMin= 1 EnMin= -282.701942765295     IErMin= 1 ErrMin= 4.36D-02
 ErrMax= 4.36D-02  0.00D+00 EMaxC= 1.00D-01 BMatC= 6.78D-01 BMatP= 6.78D-01
 IDIUse=3 WtCom= 5.64D-01 WtEn= 4.36D-01
 Coeff-Com:  0.100D+01
 Coeff-En:   0.100D+01
 Coeff:      0.100D+01
 Gap=     0.458 Goal=   None    Shift=    0.000
 GapD=    0.458 DampG=2.000 DampE=0.500 DampFc=1.0000 IDamp=-1.
 RMSDP=4.14D-03 MaxDP=2.71D-01              OVMax= 1.21D-01

 Cycle   2  Pass 1  IDiag  1:
 E= -282.893811329155     Delta-E=       -0.191868563860 Rises=F Damp=F
 DIIS: error= 1.74D-02 at cycle   2 NSaved=   2.
 NSaved= 2 IEnMin= 2 EnMin= -282.893811329155     IErMin= 2 ErrMin= 1.74D-02
 ErrMax= 1.74D-02  0.00D+00 EMaxC= 1.00D-01 BMatC= 8.01D-02 BMatP= 6.78D-01
 IDIUse=3 WtCom= 8.26D-01 WtEn= 1.74D-01
 Coeff-Com:  0.178D+00 0.822D+00
 Coeff-En:   0.000D+00 0.100D+01
 Coeff:      0.147D+00 0.853D+00
 Gap=     0.566 Goal=   None    Shift=    0.000
 RMSDP=1.60D-03 MaxDP=1.25D-01 DE=-1.92D-01 OVMax= 5.43D-02

 Cycle   3  Pass 1  IDiag  1:
 E= -282.938212957215     Delta-E=       -0.044401628060 Rises=F Damp=F
 DIIS: error= 9.96D-03 at cycle   3 NSaved=   3.
 NSaved= 3 IEnMin= 3 EnMin= -282.938212957215     IErMin= 3 ErrMin= 9.96D-03
 ErrMax= 9.96D-03  0.00D+00 EMaxC= 1.00D-01 BMatC= 1.28D-02 BMatP= 8.01D-02
 IDIUse=3 WtCom= 9.00D-01 WtEn= 9.96D-02
 Coeff-Com: -0.249D-01 0.258D+00 0.767D+00
 Coeff-En:   0.000D+00 0.000D+00 0.100D+01
 Coeff:     -0.224D-01 0.232D+00 0.790D+00
 Gap=     0.534 Goal=   None    Shift=    0.000
 RMSDP=4.54D-04 MaxDP=5.27D-02 DE=-4.44D-02 OVMax= 2.72D-02

 Cycle   4  Pass 1  IDiag  1:
 E= -282.946059040314     Delta-E=       -0.007846083099 Rises=F Damp=F
 DIIS: error= 1.45D-03 at cycle   4 NSaved=   4.
 NSaved= 4 IEnMin= 4 EnMin= -282.946059040314     IErMin= 4 ErrMin= 1.45D-03
 ErrMax= 1.45D-03  0.00D+00 EMaxC= 1.00D-01 BMatC= 4.80D-04 BMatP= 1.28D-02
 IDIUse=3 WtCom= 9.86D-01 WtEn= 1.45D-02
 Coeff-Com: -0.106D-01 0.539D-01 0.254D+00 0.703D+00
 Coeff-En:   0.000D+00 0.000D+00 0.000D+00 0.100D+01
 Coeff:     -0.104D-01 0.531D-01 0.250D+00 0.708D+00
 Gap=     0.532 Goal=   None    Shift=    0.000
 RMSDP=1.01D-04 MaxDP=9.39D-03 DE=-7.85D-03 OVMax= 4.81D-03

 Cycle   5  Pass 1  IDiag  1:
 E= -282.946439600059     Delta-E=       -0.000380559745 Rises=F Damp=F
 DIIS: error= 7.81D-04 at cycle   5 NSaved=   5.
 NSaved= 5 IEnMin= 5 EnMin= -282.946439600059     IErMin= 5 ErrMin= 7.81D-04
 ErrMax= 7.81D-04  0.00D+00 EMaxC= 1.00D-01 BMatC= 2.87D-05 BMatP= 4.80D-04
 IDIUse=3 WtCom= 9.92D-01 WtEn= 7.81D-03
 Coeff-Com:  0.187D-02-0.229D-01-0.677D-01 0.585D-01 0.103D+01
 Coeff-En:   0.000D+00 0.000D+00 0.000D+00 0.000D+00 0.100D+01
 Coeff:      0.185D-02-0.227D-01-0.671D-01 0.580D-01 0.103D+01
 Gap=     0.533 Goal=   None    Shift=    0.000
 RMSDP=4.32D-05 MaxDP=4.05D-03 DE=-3.81D-04 OVMax= 3.59D-03

 Cycle   6  Pass 1  IDiag  1:
 E= -282.946488335317     Delta-E=       -0.000048735257 Rises=F Damp=F
 DIIS: error= 1.38D-04 at cycle   6 NSaved=   6.
 NSaved= 6 IEnMin= 6 EnMin= -282.946488335317     IErMin= 6 ErrMin= 1.38D-04
 ErrMax= 1.38D-04  0.00D+00 EMaxC= 1.00D-01 BMatC= 4.25D-06 BMatP= 2.87D-05
 IDIUse=3 WtCom= 9.99D-01 WtEn= 1.38D-03
 Coeff-Com:  0.145D-02-0.109D-01-0.408D-01-0.713D-01 0.205D+00 0.916D+00
 Coeff-En:   0.000D+00 0.000D+00 0.000D+00 0.000D+00 0.000D+00 0.100D+01
 Coeff:      0.145D-02-0.109D-01-0.408D-01-0.712D-01 0.205D+00 0.916D+00
 Gap=     0.533 Goal=   None    Shift=    0.000
 RMSDP=1.91D-05 MaxDP=1.29D-03 DE=-4.87D-05 OVMax= 1.01D-03

 Cycle   7  Pass 1  IDiag  1:
 E= -282.946495730154     Delta-E=       -0.000007394837 Rises=F Damp=F
 DIIS: error= 6.51D-05 at cycle   7 NSaved=   7.
 NSaved= 7 IEnMin= 7 EnMin= -282.946495730154     IErMin= 7 ErrMin= 6.51D-05
 ErrMax= 6.51D-05  0.00D+00 EMaxC= 1.00D-01 BMatC= 4.98D-07 BMatP= 4.25D-06
 IDIUse=1 WtCom= 1.00D+00 WtEn= 0.00D+00
 Coeff-Com: -0.111D-03 0.196D-02 0.684D-02-0.175D-01-0.107D+00 0.393D-01
 Coeff-Com:  0.108D+01
 Coeff:     -0.111D-03 0.196D-02 0.684D-02-0.175D-01-0.107D+00 0.393D-01
 Coeff:      0.108D+01
 Gap=     0.533 Goal=   None    Shift=    0.000
 RMSDP=7.29D-06 MaxDP=7.32D-04 DE=-7.39D-06 OVMax= 6.81D-04

 Cycle   8  Pass 1  IDiag  1:
 E= -282.946497035021     Delta-E=       -0.000001304867 Rises=F Damp=F
 DIIS: error= 1.99D-05 at cycle   8 NSaved=   8.
 NSaved= 8 IEnMin= 8 EnMin= -282.946497035021     IErMin= 8 ErrMin= 1.99D-05
 ErrMax= 1.99D-05  0.00D+00 EMaxC= 1.00D-01 BMatC= 7.59D-08 BMatP= 4.98D-07
 IDIUse=1 WtCom= 1.00D+00 WtEn= 0.00D+00
 Coeff-Com: -0.193D-03 0.140D-02 0.541D-02 0.723D-02-0.137D-01-0.122D+00
 Coeff-Com: -0.121D+00 0.124D+01
 Coeff:     -0.193D-03 0.140D-02 0.541D-02 0.723D-02-0.137D-01-0.122D+00
 Coeff:     -0.121D+00 0.124D+01
 Gap=     0.533 Goal=   None    Shift=    0.000
 RMSDP=3.21D-06 MaxDP=3.17D-04 DE=-1.30D-06 OVMax= 3.07D-04

 Cycle   9  Pass 1  IDiag  1:
 E= -282.946497257093     Delta-E=       -0.000000222073 Rises=F Damp=F
 DIIS: error= 7.80D-06 at cycle   9 NSaved=   9.
 NSaved= 9 IEnMin= 9 EnMin= -282.946497257093     IErMin= 9 ErrMin= 7.80D-06
 ErrMax= 7.80D-06  0.00D+00 EMaxC= 1.00D-01 BMatC= 9.24D-09 BMatP= 7.59D-08
 IDIUse=1 WtCom= 1.00D+00 WtEn= 0.00D+00
 Coeff-Com: -0.126D-04-0.542D-04-0.130D-03 0.228D-02 0.143D-01-0.209D-01
 Coeff-Com: -0.153D+00 0.142D+00 0.102D+01
 Coeff:     -0.126D-04-0.542D-04-0.130D-03 0.228D-02 0.143D-01-0.209D-01
 Coeff:     -0.153D+00 0.142D+00 0.102D+01
 Gap=     0.533 Goal=   None    Shift=    0.000
 RMSDP=9.85D-07 MaxDP=9.68D-05 DE=-2.22D-07 OVMax= 9.18D-05

 Cycle  10  Pass 1  IDiag  1:
 E= -282.946497279027     Delta-E=       -0.000000021934 Rises=F Damp=F
 DIIS: error= 3.05D-06 at cycle  10 NSaved=  10.
 NSaved=10 IEnMin=10 EnMin= -282.946497279027     IErMin=10 ErrMin= 3.05D-06
 ErrMax= 3.05D-06  0.00D+00 EMaxC= 1.00D-01 BMatC= 9.99D-10 BMatP= 9.24D-09
 IDIUse=1 WtCom= 1.00D+00 WtEn= 0.00D+00
 Coeff-Com:  0.231D-04-0.185D-03-0.690D-03-0.111D-02 0.352D-02 0.130D-01
 Coeff-Com:  0.728D-02-0.152D+00 0.713D-01 0.106D+01
 Coeff:      0.231D-04-0.185D-03-0.690D-03-0.111D-02 0.352D-02 0.130D-01
 Coeff:      0.728D-02-0.152D+00 0.713D-01 0.106D+01
 Gap=     0.533 Goal=   None    Shift=    0.000
 RMSDP=3.03D-07 MaxDP=3.51D-05 DE=-2.19D-08 OVMax= 2.49D-05

 Cycle  11  Pass 1  IDiag  1:
 E= -282.946497281179     Delta-E=       -0.000000002152 Rises=F Damp=F
 DIIS: error= 6.37D-07 at cycle  11 NSaved=  11.
 NSaved=11 IEnMin=11 EnMin= -282.946497281179     IErMin=11 ErrMin= 6.37D-07
 ErrMax= 6.37D-07  0.00D+00 EMaxC= 1.00D-01 BMatC= 7.19D-11 BMatP= 9.99D-10
 IDIUse=1 WtCom= 1.00D+00 WtEn= 0.00D+00
 Coeff-Com:  0.693D-06 0.371D-05 0.353D-04-0.178D-03-0.974D-03 0.617D-03
 Coeff-Com:  0.112D-01 0.644D-03-0.976D-01-0.756D-01 0.116D+01
 Coeff:      0.693D-06 0.371D-05 0.353D-04-0.178D-03-0.974D-03 0.617D-03
 Coeff:      0.112D-01 0.644D-03-0.976D-01-0.756D-01 0.116D+01
 Gap=     0.533 Goal=   None    Shift=    0.000
 RMSDP=9.43D-08 MaxDP=8.05D-06 DE=-2.15D-09 OVMax= 5.66D-06

 Cycle  12  Pass 1  IDiag  1:
 E= -282.946497281332     Delta-E=       -0.000000000153 Rises=F Damp=F
 DIIS: error= 2.17D-07 at cycle  12 NSaved=  12.
 NSaved=12 IEnMin=12 EnMin= -282.946497281332     IErMin=12 ErrMin= 2.17D-07
 ErrMax= 2.17D-07  0.00D+00 EMaxC= 1.00D-01 BMatC= 4.09D-12 BMatP= 7.19D-11
 IDIUse=1 WtCom= 1.00D+00 WtEn= 0.00D+00
 Coeff-Com: -0.142D-05 0.112D-04 0.443D-04 0.609D-04-0.156D-03-0.920D-03
 Coeff-Com: -0.134D-02 0.119D-01-0.285D-02-0.708D-01-0.210D-01 0.109D+01
 Coeff:     -0.142D-05 0.112D-04 0.443D-04 0.609D-04-0.156D-03-0.920D-03
 Coeff:     -0.134D-02 0.119D-01-0.285D-02-0.708D-01-0.210D-01 0.109D+01
 Gap=     0.533 Goal=   None    Shift=    0.000
 RMSDP=2.11D-08 MaxDP=1.53D-06 DE=-1.53D-10 OVMax= 1.15D-06

 Cycle  13  Pass 1  IDiag  1:
 E= -282.946497281340     Delta-E=       -0.000000000009 Rises=F Damp=F
 DIIS: error= 4.37D-08 at cycle  13 NSaved=  13.
 NSaved=13 IEnMin=13 EnMin= -282.946497281340     IErMin=13 ErrMin= 4.37D-08
 ErrMax= 4.37D-08  0.00D+00 EMaxC= 1.00D-01 BMatC= 4.02D-13 BMatP= 4.09D-12
 IDIUse=1 WtCom= 1.00D+00 WtEn= 0.00D+00
 Coeff-Com:  0.305D-08-0.802D-06-0.465D-05 0.112D-04 0.115D-03-0.243D-04
 Coeff-Com: -0.124D-02 0.134D-03 0.928D-02 0.609D-02-0.112D+00 0.336D-01
 Coeff-Com:  0.106D+01
 Coeff:      0.305D-08-0.802D-06-0.465D-05 0.112D-04 0.115D-03-0.243D-04
 Coeff:     -0.124D-02 0.134D-03 0.928D-02 0.609D-02-0.112D+00 0.336D-01
 Coeff:      0.106D+01
 Gap=     0.533 Goal=   None    Shift=    0.000
 RMSDP=6.46D-09 MaxDP=4.13D-07 DE=-8.58D-12 OVMax= 3.09D-07

 SCF Done:  E(RHF) =  -282.946497281     A.U. after   13 cycles
            NFock= 13  Conv=0.65D-08     -V/T= 2.0010
 KE= 2.826654163409D+02 PE=-1.026511552622D+03 EE= 2.808923830695D+02
 Leave Link  502 at Thu Apr 15 13:38:29 2021, MaxMem= 13421772800 cpu:             513.4 elap:              14.7
 (Enter /home/hexuye/G16_1123/data2/software/Gaussian/g16_from_xuruiqin/g16/l801.exe)
 Windowed orbitals will be sorted by symmetry type.
 ExpMin= 1.03D-01 ExpMax= 1.53D+04 ExpMxC= 5.22D+02 IAcc=3 IRadAn=         5 AccDes= 0.00D+00
 HarFok:  IExCor=  205 AccDes= 0.00D+00 IRadAn=         5 IDoV=-2 UseB2=F ITyADJ=14
 ICtDFT= 12500011 ScaDFX=  1.000000  1.000000  1.000000  1.000000
 Largest valence mixing into a core orbital is  2.13D-04
 Largest core mixing into a valence orbital is  3.00D-05
 Range of M.O.s used for correlation:     6   285
 NBasis=   285 NAE=    20 NBE=    20 NFC=     5 NFV=     0
 NROrb=    280 NOA=    15 NOB=    15 NVA=   265 NVB=   265
 Leave Link  801 at Thu Apr 15 13:38:30 2021, MaxMem= 13421772800 cpu:              17.4 elap:               0.4
 (Enter /home/hexuye/G16_1123/data2/software/Gaussian/g16_from_xuruiqin/g16/l804.exe)
 Closed-shell transformation, MDV= 13421772800 ITran=4 ISComp=2.
 Unit  1 TFree=       2683392 TCopy=       1396936.
 Semi-Direct transformation.
 ModeAB=           4 MOrb=            15 LenV=   13419652427
 LASXX=     80153831 LTotXX=    80153831 LenRXX=   161235963
 LTotAB=    81082132 MaxLAS=   171116400 LenRXY=           0
 NonZer=   241389794 LenScr=   362414080 LnRSAI=   171116400
 LnScr1=   256901120 LExtra=           0 Total=    951667563
 MaxDsk=          -1 SrtSym=           T ITran=            4
 DoSDTr:  NPSUse= 64
 JobTyp=0 Pass  1:  I=   1 to  15.
 (rs|ai) integrals will be sorted in core.
 Complete sort for first half transformation.
 First half transformation complete.
 Begin second half transformation for I=  10.
 Complete sort for second half transformation.
 Second half transformation complete.
 Spin components of T(2) and E(2):
     alpha-alpha T2 =       0.3545895228D-01 E2=     -0.1288623760D+00
     alpha-beta  T2 =       0.1974916070D+00 E2=     -0.7691049949D+00
     beta-beta   T2 =       0.3545895228D-01 E2=     -0.1288623760D+00
 ANorm=    0.1126236881D+01
 E2 =    -0.1026829747D+01 EUMP2 =    -0.28397332702829D+03
 Leave Link  804 at Thu Apr 15 13:39:01 2021, MaxMem= 13421772800 cpu:            1964.9 elap:              30.9
 (Enter /home/hexuye/G16_1123/data2/software/Gaussian/g16_from_xuruiqin/g16/l913.exe)
 CIDS:  MDV= 13421772800.
 Frozen-core window:  NFC=   5 NFV=   0.
 IFCWin=0 IBDFC=1 NFBD=     0     0 NFCmp=     0     0 NFFFC=     0     0
 Using DD3R+UMP44R for 1st iteration.
 Using DD4RQ for 2nd and later iterations.
 Keep R2 and R3 ints in memory in symmetry-blocked form, NReq=1254674931.
 FoFCou: FMM=F IPFlag=           0 FMFlag=           0 FMFlg1=           0
         NFxFlg=           0 DoJE=F BraDBF=F KetDBF=F FulRan=T
         wScrn=  0.000000 ICntrl=       600 IOpCl=  0 I1Cent=           0 NGrid=           0
         NMat0=    1 NMatS0=  40755 NMatT0=    0 NMatD0=    1 NMtDS0=    0 NMtDT0=    0
 Petite list used in FoFCou.
 CIDS: In Core Option IDoMem=           1.
 CCSD(T)
 =======
 Iterations=  50 Convergence= 0.100D-06
 Produce multiple copies of IABC intergrals
 Iteration Nr.   1
 **********************
 DD1Dir will call FoFMem   1 times, MxPair=       240
 NAB=   120 NAA=     0 NBB=     0.
 MP4(R+Q)=  0.22290348D-01
 Maximum subspace dimension=  5
 A-vector RMS=  2.0482940D-03 Max=  2.7827847D-02 conv= 1.00D-05.
 RLE energy=       -1.0130055812
 E3=       -0.88327265D-02        EUMP3=      -0.28398215975D+03
 E4(DQ)=    0.15511720D-02        UMP4(DQ)=   -0.28398060858D+03
 E4(SDQ)=  -0.10042585D-01        UMP4(SDQ)=  -0.28399220234D+03
 VARIATIONAL ENERGIES WITH THE FIRST-ORDER WAVEFUNCTION:
 DE(Corr)=  -1.0128172     E(Corr)=     -283.95931450    
 NORM(A)=   0.11259646D+01
 Iteration Nr.   2
 **********************
 DD1Dir will call FoFMem   1 times, MxPair=       240
 NAB=   120 NAA=     0 NBB=     0.
 A-vector RMS=  2.9684763D-04 Max=  6.8606257D-03 conv= 1.00D-05.
 RLE energy=       -1.0408762360
 DE(Corr)=  -1.0406312     E(CORR)=     -283.98712847     Delta=-2.78D-02
 NORM(A)=   0.11352213D+01
 Iteration Nr.   3
 **********************
 DD1Dir will call FoFMem   1 times, MxPair=       240
 NAB=   120 NAA=     0 NBB=     0.
 A-vector RMS=  3.8532336D-04 Max=  6.3448139D-03 conv= 1.00D-05.
 RLE energy=       -1.0423874281
 DE(Corr)=  -1.0400427     E(CORR)=     -283.98654000     Delta= 5.88D-04
 NORM(A)=   0.11377112D+01
 Iteration Nr.   4
 **********************
 DD1Dir will call FoFMem   1 times, MxPair=       240
 NAB=   120 NAA=     0 NBB=     0.
 A-vector RMS=  6.3057083D-05 Max=  9.9059191D-04 conv= 1.00D-05.
 RLE energy=       -1.0425596641
 DE(Corr)=  -1.0423759     E(CORR)=     -283.98887319     Delta=-2.33D-03
 NORM(A)=   0.11384654D+01
 Iteration Nr.   5
 **********************
 DD1Dir will call FoFMem   1 times, MxPair=       240
 NAB=   120 NAA=     0 NBB=     0.
 A-vector RMS=  4.0031130D-05 Max=  5.9174349D-04 conv= 1.00D-05.
 RLE energy=       -1.0426742860
 DE(Corr)=  -1.0426266     E(CORR)=     -283.98912391     Delta=-2.51D-04
 NORM(A)=   0.11387116D+01
 Iteration Nr.   6
 **********************
 DD1Dir will call FoFMem   1 times, MxPair=       240
 NAB=   120 NAA=     0 NBB=     0.
 A-vector RMS=  1.1074452D-05 Max=  1.8375590D-04 conv= 1.00D-05.
 RLE energy=       -1.0426548403
 DE(Corr)=  -1.0426501     E(CORR)=     -283.98914734     Delta=-2.34D-05
 NORM(A)=   0.11387410D+01
 Iteration Nr.   7
 **********************
 DD1Dir will call FoFMem   1 times, MxPair=       240
 NAB=   120 NAA=     0 NBB=     0.
 A-vector RMS=  4.8669725D-06 Max=  7.7835943D-05 conv= 1.00D-05.
 RLE energy=       -1.0426379394
 DE(Corr)=  -1.0426514     E(CORR)=     -283.98914868     Delta=-1.34D-06
 NORM(A)=   0.11387435D+01
 Iteration Nr.   8
 **********************
 DD1Dir will call FoFMem   1 times, MxPair=       240
 NAB=   120 NAA=     0 NBB=     0.
 A-vector RMS=  1.5678991D-06 Max=  2.3775334D-05 conv= 1.00D-05.
 RLE energy=       -1.0426489514
 DE(Corr)=  -1.0426499     E(CORR)=     -283.98914722     Delta= 1.46D-06
 NORM(A)=   0.11387479D+01
 Iteration Nr.   9
 **********************
 DD1Dir will call FoFMem   1 times, MxPair=       240
 NAB=   120 NAA=     0 NBB=     0.
 A-vector RMS=  4.7756193D-07 Max=  8.1839186D-06 conv= 1.00D-05.
 RLE energy=       -1.0426486304
 DE(Corr)=  -1.0426490     E(CORR)=     -283.98914626     Delta= 9.60D-07
 NORM(A)=   0.11387483D+01
 Iteration Nr.  10
 **********************
 DD1Dir will call FoFMem   1 times, MxPair=       240
 NAB=   120 NAA=     0 NBB=     0.
 A-vector RMS=  2.3408323D-07 Max=  3.4142584D-06 conv= 1.00D-05.
 RLE energy=       -1.0426497060
 DE(Corr)=  -1.0426497     E(CORR)=     -283.98914698     Delta=-7.21D-07
 NORM(A)=   0.11387490D+01
 Iteration Nr.  11
 **********************
 DD1Dir will call FoFMem   1 times, MxPair=       240
 NAB=   120 NAA=     0 NBB=     0.
 A-vector RMS=  8.2072863D-08 Max=  1.1668476D-06 conv= 1.00D-05.
 RLE energy=       -1.0426500754
 DE(Corr)=  -1.0426499     E(CORR)=     -283.98914721     Delta=-2.24D-07
 NORM(A)=   0.11387493D+01
 Iteration Nr.  12
 **********************
 DD1Dir will call FoFMem   1 times, MxPair=       240
 NAB=   120 NAA=     0 NBB=     0.
 A-vector RMS=  4.0019713D-08 Max=  6.1114169D-07 conv= 1.00D-05.
 RLE energy=       -1.0426501308
 DE(Corr)=  -1.0426501     E(CORR)=     -283.98914737     Delta=-1.61D-07
 NORM(A)=   0.11387494D+01
 Iteration Nr.  13
 **********************
 DD1Dir will call FoFMem   1 times, MxPair=       240
 NAB=   120 NAA=     0 NBB=     0.
 A-vector RMS=  2.0153651D-08 Max=  3.0219769D-07 conv= 1.00D-05.
 RLE energy=       -1.0426501707
 DE(Corr)=  -1.0426502     E(CORR)=     -283.98914743     Delta=-6.52D-08
 NORM(A)=   0.11387495D+01
 CI/CC converged in   13 iterations to DelEn=-6.52D-08 Conv= 1.00D-07 ErrA1= 2.02D-08 Conv= 1.00D-05
 Wavefunction amplitudes converged. E(Corr)=     -283.98914743    
 Largest amplitude= 4.04D-02
 IPart= 43 IA=   15   10.31% done.
 IPart= 60 IA=   29   20.05% done.
 IPart= 59 IA=   45   30.50% done.
 IPart= 32 IA=   61   40.22% done.
 IPart= 48 IA=   79   50.28% done.
 IPart= 43 IA=   99   60.37% done.
 IPart= 54 IA=  121   70.15% done.
 IPart= 12 IA=  148   80.27% done.
 IPart= 15 IA=  182   90.03% done.
 Time for triples=    81879.35 seconds.
 T4(CCSD)= -0.45923198D-01
 T5(CCSD)=  0.20615286D-02
 CCSD(T)= -0.28403300910D+03
 Discarding MO integrals.
 Leave Link  913 at Thu Apr 15 14:05:00 2021, MaxMem= 13421772800 cpu:           98582.9 elap:            1545.7
 (Enter /home/hexuye/G16_1123/data2/software/Gaussian/g16_from_xuruiqin/g16/l601.exe)
 Copying SCF densities to generalized density rwf, IOpCl= 0 IROHF=0.

 **********************************************************************

            Population analysis using the SCF Density.

 **********************************************************************

 Orbital symmetries:
       Occupied  (A') (A') (A') (A') (A') (A') (A') (A') (A') (A')
                 (A') (A") (A') (A") (A') (A') (A") (A') (A") (A')
       Virtual   (A') (A') (A") (A') (A") (A") (A') (A') (A') (A')
                 (A") (A') (A") (A') (A') (A") (A') (A") (A') (A')
                 (A') (A') (A') (A") (A') (A') (A") (A') (A') (A")
                 (A") (A') (A") (A') (A') (A") (A') (A") (A') (A")
                 (A') (A") (A') (A') (A") (A') (A') (A") (A') (A")
                 (A') (A') (A") (A') (A') (A') (A") (A') (A') (A")
                 (A') (A") (A') (A') (A") (A') (A") (A') (A") (A')
                 (A') (A") (A') (A") (A') (A') (A") (A') (A') (A')
                 (A') (A") (A') (A') (A") (A') (A') (A") (A') (A")
                 (A') (A") (A') (A") (A') (A') (A") (A') (A") (A')
                 (A") (A') (A') (A") (A") (A') (A") (A") (A') (A')
                 (A") (A") (A') (A") (A') (A") (A") (A') (A') (A')
                 (A") (A') (A') (A') (A") (A") (A') (A") (A") (A')
                 (A') (A') (A") (A') (A") (A') (A') (A') (A") (A')
                 (A") (A") (A") (A') (A') (A') (A') (A') (A") (A')
                 (A') (A') (A") (A') (A") (A') (A') (A') (A") (A")
                 (A') (A') (A") (A') (A') (A') (A') (A") (A") (A')
                 (A') (A") (A') (A") (A') (A') (A') (A") (A") (A")
                 (A') (A") (A') (A") (A') (A") (A') (A") (A') (A")
                 (A') (A") (A') (A") (A') (A') (A') (A') (A') (A')
                 (A") (A') (A') (A') (A") (A') (A') (A') (A") (A')
                 (A") (A') (A") (A') (A') (A') (A") (A") (A') (A')
                 (A') (A') (A") (A") (A') (A') (A') (A') (A") (A')
                 (A') (A') (A") (A') (A') (A") (A") (A') (A") (A')
                 (A") (A') (A') (A') (A') (A") (A') (A') (A') (A")
                 (A') (A') (A') (A') (A") (A') (A') (A") (A") (A')
                 (A') (A') (A') (A') (A')
 The electronic state is 1-A'.
 Alpha  occ. eigenvalues --  -20.61652 -20.54580 -15.55109 -11.38370 -11.27572
 Alpha  occ. eigenvalues --   -1.47139  -1.36505  -1.19906  -0.97305  -0.83095
 Alpha  occ. eigenvalues --   -0.70819  -0.69850  -0.69233  -0.62951  -0.59607
 Alpha  occ. eigenvalues --   -0.58080  -0.54562  -0.48431  -0.48061  -0.40241
 Alpha virt. eigenvalues --    0.13077   0.16320   0.16471   0.17683   0.19014
 Alpha virt. eigenvalues --    0.25555   0.30661   0.34495   0.37130   0.42845
 Alpha virt. eigenvalues --    0.45224   0.45296   0.46635   0.48432   0.53310
 Alpha virt. eigenvalues --    0.53824   0.57606   0.59509   0.59581   0.62340
 Alpha virt. eigenvalues --    0.64261   0.65267   0.69583   0.71252   0.72261
 Alpha virt. eigenvalues --    0.74224   0.74541   0.79303   0.81311   0.81823
 Alpha virt. eigenvalues --    0.86947   0.89180   0.91966   0.92283   0.96304
 Alpha virt. eigenvalues --    1.03332   1.05859   1.07120   1.11368   1.17600
 Alpha virt. eigenvalues --    1.18664   1.20692   1.23841   1.24671   1.28025
 Alpha virt. eigenvalues --    1.32354   1.34592   1.38546   1.38599   1.40232
 Alpha virt. eigenvalues --    1.44277   1.44721   1.49545   1.53611   1.54844
 Alpha virt. eigenvalues --    1.56080   1.59235   1.61252   1.72971   1.77076
 Alpha virt. eigenvalues --    1.78323   1.83531   1.83925   1.87208   1.95030
 Alpha virt. eigenvalues --    1.96972   2.01735   2.05230   2.23727   2.24795
 Alpha virt. eigenvalues --    2.27579   2.31431   2.32680   2.39118   2.41403
 Alpha virt. eigenvalues --    2.46850   2.59124   2.60050   2.65896   2.70156
 Alpha virt. eigenvalues --    2.72244   2.76093   2.82350   2.87256   2.94538
 Alpha virt. eigenvalues --    2.98001   3.03888   3.05281   3.12540   3.14621
 Alpha virt. eigenvalues --    3.16375   3.19644   3.23175   3.29111   3.29298
 Alpha virt. eigenvalues --    3.32129   3.36956   3.39341   3.40043   3.44691
 Alpha virt. eigenvalues --    3.46061   3.49450   3.53541   3.53941   3.57916
 Alpha virt. eigenvalues --    3.60298   3.60493   3.62679   3.66169   3.70632
 Alpha virt. eigenvalues --    3.71702   3.73502   3.75902   3.79428   3.81078
 Alpha virt. eigenvalues --    3.87089   3.90042   3.90114   3.95674   3.97370
 Alpha virt. eigenvalues --    3.97666   4.01852   4.02513   4.07354   4.09259
 Alpha virt. eigenvalues --    4.18464   4.19444   4.21180   4.25525   4.26272
 Alpha virt. eigenvalues --    4.28799   4.34235   4.36276   4.37515   4.39880
 Alpha virt. eigenvalues --    4.42132   4.43742   4.48134   4.52948   4.56236
 Alpha virt. eigenvalues --    4.58231   4.60847   4.68594   4.69906   4.75237
 Alpha virt. eigenvalues --    4.77850   4.86441   4.98972   5.00500   5.03325
 Alpha virt. eigenvalues --    5.06763   5.15276   5.16757   5.22822   5.30626
 Alpha virt. eigenvalues --    5.32409   5.45377   5.46019   5.48207   5.51904
 Alpha virt. eigenvalues --    5.56463   5.60928   5.61277   5.67797   5.71194
 Alpha virt. eigenvalues --    5.74679   5.86042   5.86619   5.97207   5.99512
 Alpha virt. eigenvalues --    6.05723   6.07000   6.10978   6.12655   6.16593
 Alpha virt. eigenvalues --    6.24480   6.32542   6.40683   6.44886   6.53841
 Alpha virt. eigenvalues --    6.54153   6.65165   6.81514   6.85430   6.93619
 Alpha virt. eigenvalues --    6.94467   7.02165   7.05045   7.19857   7.21128
 Alpha virt. eigenvalues --    7.21728   7.27252   7.36036   7.36081   7.45445
 Alpha virt. eigenvalues --    7.52173   7.64843   7.79796   7.99783   8.32587
 Alpha virt. eigenvalues --   10.45983  11.32217  11.40820  11.48941  11.58709
 Alpha virt. eigenvalues --   11.89021  13.22292  13.49946  14.77421  14.86450
 Alpha virt. eigenvalues --   14.96298  15.01947  15.06099  15.09960  15.38013
 Alpha virt. eigenvalues --   15.59093  15.65639  15.70311  15.89470  16.05642
 Alpha virt. eigenvalues --   16.25702  17.83049  19.04697  19.15791  19.38584
 Alpha virt. eigenvalues --   19.65516  20.17584  20.28449  21.96956  21.97167
 Alpha virt. eigenvalues --   22.05827  22.36370  22.59580  22.86599  23.14725
 Alpha virt. eigenvalues --   30.04578  30.08101  30.09859  30.17082  30.20737
 Alpha virt. eigenvalues --   30.23794  30.29766  30.37320  30.50694  30.58456
 Alpha virt. eigenvalues --   50.34421  50.91410  51.07708  51.11262  51.19583
 Alpha virt. eigenvalues --   51.30065  62.72530  63.29962  70.35824  70.77816
 Alpha virt. eigenvalues --   71.04234  83.56161  90.42333  90.51997  90.68091
 Alpha virt. eigenvalues --   90.89176  91.30221  91.40996 107.99518 108.29634
          Condensed to atoms (all electrons):
               1          2          3          4          5          6
     1  C    4.216975   0.423368   0.729155  -0.037403   0.332939  -0.061261
     2  O    0.423368   7.765474  -0.087440   0.335159  -0.076817  -0.003921
     3  O    0.729155  -0.087440   7.877817   0.006615  -0.078316   0.005923
     4  H   -0.037403   0.335159   0.006615   0.441686   0.015240  -0.002373
     5  C    0.332939  -0.076817  -0.078316   0.015240   4.774542   0.315365
     6  N   -0.061261  -0.003921   0.005923  -0.002373   0.315365   6.284143
     7  H   -0.044657   0.001787   0.004892  -0.000731   0.410472  -0.022701
     8  H   -0.044657   0.001787   0.004892  -0.000731   0.410472  -0.022701
     9  H   -0.004723   0.003988   0.000048  -0.000275  -0.041522   0.402658
    10  H   -0.004723   0.003988   0.000048  -0.000275  -0.041522   0.402658
               7          8          9         10
     1  C   -0.044657  -0.044657  -0.004723  -0.004723
     2  O    0.001787   0.001787   0.003988   0.003988
     3  O    0.004892   0.004892   0.000048   0.000048
     4  H   -0.000731  -0.000731  -0.000275  -0.000275
     5  C    0.410472   0.410472  -0.041522  -0.041522
     6  N   -0.022701  -0.022701   0.402658   0.402658
     7  H    0.567102  -0.009900   0.007182  -0.006016
     8  H   -0.009900   0.567102  -0.006016   0.007182
     9  H    0.007182  -0.006016   0.561784  -0.036344
    10  H   -0.006016   0.007182  -0.036344   0.561784
 Mulliken charges:
               1
     1  C    0.494988
     2  O   -0.367374
     3  O   -0.463635
     4  H    0.243087
     5  C   -0.020853
     6  N   -0.297790
     7  H    0.092569
     8  H    0.092569
     9  H    0.113219
    10  H    0.113219
 Sum of Mulliken charges =  -0.00000
 Mulliken charges with hydrogens summed into heavy atoms:
               1
     1  C    0.494988
     2  O   -0.124287
     3  O   -0.463635
     5  C    0.164286
     6  N   -0.071352
 Electronic spatial extent (au):  <R**2>=            414.8695
 Charge=             -0.0000 electrons
 Dipole moment (field-independent basis, Debye):
    X=             -1.7892    Y=             -1.0115    Z=             -0.0000  Tot=              2.0553
 Quadrupole moment (field-independent basis, Debye-Ang):
   XX=            -27.6331   YY=            -36.6748   ZZ=            -27.0107
   XY=             -2.2244   XZ=             -0.0000   YZ=             -0.0000
 Traceless Quadrupole moment (field-independent basis, Debye-Ang):
   XX=              2.8064   YY=             -6.2353   ZZ=              3.4288
   XY=             -2.2244   XZ=             -0.0000   YZ=             -0.0000
 Octapole moment (field-independent basis, Debye-Ang**2):
  XXX=             -8.7328  YYY=              4.3111  ZZZ=             -0.0000  XYY=            -19.1788
  XXY=              6.8172  XXZ=             -0.0000  XZZ=             -0.9481  YZZ=             -2.1304
  YYZ=              0.0000  XYZ=              0.0000
 Hexadecapole moment (field-independent basis, Debye-Ang**3):
 XXXX=           -129.7966 YYYY=           -368.1221 ZZZZ=            -33.3408 XXXY=             -0.2940
 XXXZ=             -0.0000 YYYX=             22.5787 YYYZ=             -0.0000 ZZZX=             -0.0000
 ZZZY=              0.0000 XXYY=            -70.6617 XXZZ=            -27.9550 YYZZ=            -52.4420
 XXYZ=              0.0000 YYXZ=             -0.0000 ZZXY=              5.7439
 N-N= 1.800072559301D+02 E-N=-1.026511550455D+03  KE= 2.826654163409D+02
 Symmetry A'   KE= 2.698317053592D+02
 Symmetry A"   KE= 1.283371098166D+01
 Leave Link  601 at Thu Apr 15 14:05:03 2021, MaxMem= 13421772800 cpu:              18.5 elap:               2.9
 (Enter /home/hexuye/G16_1123/data2/software/Gaussian/g16_from_xuruiqin/g16/l9999.exe)
 Unable to Open any file for archive entry.
 1\1\GINC-CU38\SP\RCCSD(T)-FC\Gen\C2H5N1O2\ROOT\15-Apr-2021\0\\#p CCSD(
 T)/gen\\start best geom PCCP paper\\0,1\C\O,1,1.34824\O,1,1.20339,2,12
 2.72896\H,2,0.965621,1,106.37597,3,0.,0\C,1,1.51736,3,123.80161,2,180.
 ,0\N,5,1.44458,1,118.62999,3,180.,0\H,5,1.0899,1,105.95621,3,56.19793,
 0\H,5,1.0899,1,105.95621,3,-56.19793,0\H,6,1.00975,5,111.34671,1,59.71
 795,0\H,6,1.00975,5,111.34671,1,-59.71795,0\\Version=ES64L-G16RevC.01\
 State=1-A'\HF=-282.9464973\MP2=-283.973327\MP3=-283.9821598\MP4D=-284.
 0028989\MP4DQ=-283.9806086\MP4SDQ=-283.9922023\CCSD=-283.9891474\CCSD(
 T)=-284.0330091\RMSD=6.461e-09\PG=CS [SG(C2H1N1O2),X(H4)]\\@
 The archive entry for this job was punched.


 THERE'S NOTHING WRONG WITH FOLLOWING A TRAIN OF THOUGHT...
 AS LONG AS IT ULTIMATELY PULLS INTO THE STATION.
 Job cpu time:       1 days  4 hours  7 minutes  3.7 seconds.
 Elapsed time:       0 days  0 hours 26 minutes 37.0 seconds.
 File lengths (MBytes):  RWF=   7437 Int=      0 D2E=      0 Chk=      7 Scr=      2
 Normal termination of Gaussian 16 at Thu Apr 15 14:05:04 2021.
