 Entering Gaussian System, Link 0=g16
 Input=ttc_Best_geom_CCSDT_cc-pwCVTZ-ae.gjf
 Output=ttc_Best_geom_CCSDT_cc-pwCVTZ-ae.log
 AtFile(1): /home/hexuye/glycine/cc-pwcvtz.0.gbs
            H     0
            S    5   1.00
                  3.387000D+01           6.068000D-03
                  5.095000D+00           4.530800D-02
                  1.159000D+00           2.028220D-01
                  3.258000D-01           5.039030D-01
                  1.027000D-01           3.834210D-01
            S    1   1.00
                  3.258000D-01           1.000000D+00
            S    1   1.00
                  1.027000D-01           1.000000D+00
            P    1   1.00
                  1.407000D+00           1.000000D+00
            P    1   1.00
                  3.880000D-01           1.000000D+00
            D    1   1.00
                  1.057000D+00           1.0000000
            ****
            C     0
            S    10   1.00
               8236.0000000              0.0005310
               1235.0000000              0.0041080
                280.8000000              0.0210870
                 79.2700000              0.0818530
                 25.5900000              0.2348170
                  8.9970000              0.4344010
                  3.3190000              0.3461290
                  0.9059000              0.0393780
                  0.3643000             -0.0089830
                  0.1285000              0.0023850
            S    10   1.00
               8236.0000000             -0.0001130
               1235.0000000             -0.0008780
                280.8000000             -0.0045400
                 79.2700000             -0.0181330
                 25.5900000             -0.0557600
                  8.9970000             -0.1268950
                  3.3190000             -0.1703520
                  0.9059000              0.1403820
                  0.3643000              0.5986840
                  0.1285000              0.3953890
            S    1   1.00
                  8.828000               1.000000
            S    1   1.00
                  3.474000               1.000000
            S    1   1.00
                  0.9059000              1.0000000
            S    1   1.00
                  0.1285000              1.0000000
            P    5   1.00
                 18.7100000              0.0140310
                  4.1330000              0.0868660
                  1.2000000              0.2902160
                  0.3827000              0.5010080
                  0.1209000              0.3434060
            P    1   1.00
                 21.55200                1.000000
            P    1   1.00
                  5.442000               1.000000
            P    1   1.00
                  0.3827000              1.0000000
            P    1   1.00
                  0.1209000              1.0000000
            D    1   1.00
                  4.950000               1.000000
            D    1   1.00
                  1.0970000              1.0000000
            D    1   1.00
                  0.3180000              1.0000000
            F    1   1.00
                  0.7610000              1.0000000
            ****
            N     0
            S    10   1.00
              11420.0000000              0.0005230
               1712.0000000              0.0040450
                389.3000000              0.0207750
                110.0000000              0.0807270
                 35.5700000              0.2330740
                 12.5400000              0.4335010
                  4.6440000              0.3474720
                  1.2930000              0.0412620
                  0.5118000             -0.0085080
                  0.1787000              0.0023840
            S    10   1.00
              11420.0000000             -0.0001150
               1712.0000000             -0.0008950
                389.3000000             -0.0046240
                110.0000000             -0.0185280
                 35.5700000             -0.0573390
                 12.5400000             -0.1320760
                  4.6440000             -0.1725100
                  1.2930000              0.1518140
                  0.5118000              0.5999440
                  0.1787000              0.3874620
            S    1   1.00
                 11.80700                1.000000
            S    1   1.00
                  4.733000               1.000000
            S    1   1.00
                  1.2930000              1.0000000
            S    1   1.00
                  0.1787000              1.0000000
            P    5   1.00
                 26.6300000              0.0146700
                  5.9480000              0.0917640
                  1.7420000              0.2986830
                  0.5550000              0.4984870
                  0.1725000              0.3370230
            P    1   1.00
                 29.81800                1.000000
            P    1   1.00
                  7.743000               1.000000
            P    1   1.00
                  0.5550000              1.0000000
            P    1   1.00
                  0.1725000              1.0000000
            D    1   1.00
                  7.352000               1.000000
            D    1   1.00
                  1.6540000              1.0000000
            D    1   1.00
                  0.4690000              1.0000000
            F    1   1.00
                  1.0930000              1.0000000
            ****
            O     0
            S    10   1.00
              15330.0000000              0.0005080
               2299.0000000              0.0039290
                522.4000000              0.0202430
                147.3000000              0.0791810
                 47.5500000              0.2306870
                 16.7600000              0.4331180
                  6.2070000              0.3502600
                  1.7520000              0.0427280
                  0.6882000             -0.0081540
                  0.2384000              0.0023810
            S    10   1.00
              15330.0000000             -0.0001150
               2299.0000000             -0.0008950
                522.4000000             -0.0046360
                147.3000000             -0.0187240
                 47.5500000             -0.0584630
                 16.7600000             -0.1364630
                  6.2070000             -0.1757400
                  1.7520000              0.1609340
                  0.6882000              0.6034180
                  0.2384000              0.3787650
            S    1   1.00
                 15.38100                1.000000
            S    1   1.00
                  6.245000               1.000000
            S    1   1.00
                  1.7520000              1.0000000
            S    1   1.00
                  0.2384000              1.0000000
            P    5   1.00
                 34.4600000              0.0159280
                  7.7490000              0.0997400
                  2.2800000              0.3104920
                  0.7156000              0.4910260
                  0.2140000              0.3363370
            P    1   1.00
                 38.48400                1.000000
            P    1   1.00
                 10.21600                1.000000
            P    1   1.00
                  0.7156000              1.0000000
            P    1   1.00
                  0.2140000              1.0000000
            D    1   1.00
                 10.23800                1.000000
            D    1   1.00
                  2.3140000              1.0000000
            D    1   1.00
                  0.6450000              1.0000000
            F    1   1.00
                  1.4280000              1.0000000
            ****
 Initial command:
 /home/hexuye/G16_1123/data2/software/Gaussian/g16_from_xuruiqin/g16/l1.exe "/home/hexuye/scratch/Gau-259381.inp" -scrdir="/home/hexuye/scratch/"
 Entering Link 1 = /home/hexuye/G16_1123/data2/software/Gaussian/g16_from_xuruiqin/g16/l1.exe PID=    259382.
  
 Copyright (c) 1988-2019, Gaussian, Inc.  All Rights Reserved.
  
 This is part of the Gaussian(R) 16 program.  It is based on
 the Gaussian(R) 09 system (copyright 2009, Gaussian, Inc.),
 the Gaussian(R) 03 system (copyright 2003, Gaussian, Inc.),
 the Gaussian(R) 98 system (copyright 1998, Gaussian, Inc.),
 the Gaussian(R) 94 system (copyright 1995, Gaussian, Inc.),
 the Gaussian 92(TM) system (copyright 1992, Gaussian, Inc.),
 the Gaussian 90(TM) system (copyright 1990, Gaussian, Inc.),
 the Gaussian 88(TM) system (copyright 1988, Gaussian, Inc.),
 the Gaussian 86(TM) system (copyright 1986, Carnegie Mellon
 University), and the Gaussian 82(TM) system (copyright 1983,
 Carnegie Mellon University). Gaussian is a federally registered
 trademark of Gaussian, Inc.
  
 This software contains proprietary and confidential information,
 including trade secrets, belonging to Gaussian, Inc.
  
 This software is provided under written license and may be
 used, copied, transmitted, or stored only in accord with that
 written license.
  
 The following legend is applicable only to US Government
 contracts under FAR:
  
                    RESTRICTED RIGHTS LEGEND
  
 Use, reproduction and disclosure by the US Government is
 subject to restrictions as set forth in subparagraphs (a)
 and (c) of the Commercial Computer Software - Restricted
 Rights clause in FAR 52.227-19.
  
 Gaussian, Inc.
 340 Quinnipiac St., Bldg. 40, Wallingford CT 06492
  
  
 ---------------------------------------------------------------
 Warning -- This program may not be used in any manner that
 competes with the business of Gaussian, Inc. or will provide
 assistance to any competitor of Gaussian, Inc.  The licensee
 of this program is prohibited from giving any competitor of
 Gaussian, Inc. access to this program.  By using this program,
 the user acknowledges that Gaussian, Inc. is engaged in the
 business of creating and licensing software in the field of
 computational chemistry and represents and warrants to the
 licensee that it is not a competitor of Gaussian, Inc. and that
 it will not use this program in any manner prohibited above.
 ---------------------------------------------------------------
  

 Cite this work as:
 Gaussian 16, Revision C.01,
 M. J. Frisch, G. W. Trucks, H. B. Schlegel, G. E. Scuseria, 
 M. A. Robb, J. R. Cheeseman, G. Scalmani, V. Barone, 
 G. A. Petersson, H. Nakatsuji, X. Li, M. Caricato, A. V. Marenich, 
 J. Bloino, B. G. Janesko, R. Gomperts, B. Mennucci, H. P. Hratchian, 
 J. V. Ortiz, A. F. Izmaylov, J. L. Sonnenberg, D. Williams-Young, 
 F. Ding, F. Lipparini, F. Egidi, J. Goings, B. Peng, A. Petrone, 
 T. Henderson, D. Ranasinghe, V. G. Zakrzewski, J. Gao, N. Rega, 
 G. Zheng, W. Liang, M. Hada, M. Ehara, K. Toyota, R. Fukuda, 
 J. Hasegawa, M. Ishida, T. Nakajima, Y. Honda, O. Kitao, H. Nakai, 
 T. Vreven, K. Throssell, J. A. Montgomery, Jr., J. E. Peralta, 
 F. Ogliaro, M. J. Bearpark, J. J. Heyd, E. N. Brothers, K. N. Kudin, 
 V. N. Staroverov, T. A. Keith, R. Kobayashi, J. Normand, 
 K. Raghavachari, A. P. Rendell, J. C. Burant, S. S. Iyengar, 
 J. Tomasi, M. Cossi, J. M. Millam, M. Klene, C. Adamo, R. Cammi, 
 J. W. Ochterski, R. L. Martin, K. Morokuma, O. Farkas, 
 J. B. Foresman, and D. J. Fox, Gaussian, Inc., Wallingford CT, 2019.
 
 ******************************************
 Gaussian 16:  ES64L-G16RevC.01  3-Jul-2019
                15-Apr-2021 
 ******************************************
 %chk=ttc_Best_geom_CCSDT_cc-pwCVTZ-ae.chk
 %nprocshared=64
 Will use up to   64 processors via shared memory.
 %mem=100GB
 -------------------
 #p CCSD(T)=FULL/gen
 -------------------
 1/38=1,172=1/1;
 2/12=2,17=6,18=5,40=1/2;
 3/5=7,11=9,25=1,30=1/1,2,3;
 4//1;
 5/5=2,38=5/2;
 8/6=4,9=120000,10=90/1,4;
 9/5=7,14=2/13;
 6/7=2,8=2,9=2,10=2/1;
 99/5=1,9=1/99;
 Leave Link    1 at Thu Apr 15 12:40:56 2021, MaxMem= 13421772800 cpu:               2.5 elap:               0.0
 (Enter /home/hexuye/G16_1123/data2/software/Gaussian/g16_from_xuruiqin/g16/l101.exe)
 --------------------------
 start best geom PCCP paper
 --------------------------
 Symbolic Z-matrix:
 Charge =  0 Multiplicity = 1
 C
 O                    1    B1
 O                    1    B2       2    A1
 H                    2    B3       1    A2       3    D1       0
 C                    1    B4       3    A3       2    D2       0
 N                    5    B5       1    A4       3    D3       0
 H                    5    B6       1    A5       3    D4       0
 H                    5    B7       1    A6       3    D5       0
 H                    6    B8       5    A7       1    D6       0
 H                    6    B9       5    A8       1    D7       0
       Variables:
  B1                    1.35431                  
  B2                    1.19608                  
  B3                    0.96191                  
  B4                    1.52269                  
  B5                    1.44073                  
  B6                    1.09261                  
  B7                    1.09261                  
  B8                    1.01113                  
  B9                    1.01113                  
  A1                  120.26189                  
  A2                  110.63119                  
  A3                  124.62553                  
  A4                  115.35662                  
  A5                  107.80356                  
  A6                  107.80356                  
  A7                  110.22995                  
  A8                  110.22995                  
  D1                  180.                       
  D2                  180.                       
  D3                    0.                       
  D4                 -122.62433                  
  D5                  122.62433                  
  D6                  -58.35404                  
  D7                   58.35404                  
 
 ITRead=  0  0  0  0  0  0  0  0  0  0
 MicOpt= -1 -1 -1 -1 -1 -1 -1 -1 -1 -1
 NAtoms=     10 NQM=       10 NQMF=       0 NMMI=      0 NMMIF=      0
                NMic=       0 NMicF=      0.
                    Isotopes and Nuclear Properties:
 (Nuclear quadrupole moments (NQMom) in fm**2, nuclear magnetic moments (NMagM)
  in nuclear magnetons)

  Atom         1           2           3           4           5           6           7           8           9          10
 IAtWgt=          12          16          16           1          12          14           1           1           1           1
 AtmWgt=  12.0000000  15.9949146  15.9949146   1.0078250  12.0000000  14.0030740   1.0078250   1.0078250   1.0078250   1.0078250
 NucSpn=           0           0           0           1           0           2           1           1           1           1
 AtZEff=  -0.0000000  -0.0000000  -0.0000000  -0.0000000  -0.0000000  -0.0000000  -0.0000000  -0.0000000  -0.0000000  -0.0000000
 NQMom=    0.0000000   0.0000000   0.0000000   0.0000000   0.0000000   2.0440000   0.0000000   0.0000000   0.0000000   0.0000000
 NMagM=    0.0000000   0.0000000   0.0000000   2.7928460   0.0000000   0.4037610   2.7928460   2.7928460   2.7928460   2.7928460
 AtZNuc=   6.0000000   8.0000000   8.0000000   1.0000000   6.0000000   7.0000000   1.0000000   1.0000000   1.0000000   1.0000000
 Leave Link  101 at Thu Apr 15 12:40:57 2021, MaxMem= 13421772800 cpu:               7.5 elap:               0.2
 (Enter /home/hexuye/G16_1123/data2/software/Gaussian/g16_from_xuruiqin/g16/l202.exe)
                          Input orientation:                          
 ---------------------------------------------------------------------
 Center     Atomic      Atomic             Coordinates (Angstroms)
 Number     Number       Type             X           Y           Z
 ---------------------------------------------------------------------
      1          6           0        0.000000    0.000000    0.000000
      2          8           0        0.000000    0.000000    1.354310
      3          8           0        1.033091    0.000000   -0.602768
      4          1           0       -0.900217    0.000000    1.693239
      5          6           0       -1.378759    0.000000   -0.646227
      6          7           0       -1.384895    0.000000   -2.086944
      7          1           0       -1.919274    0.876153   -0.280172
      8          1           0       -1.919274   -0.876153   -0.280172
      9          1           0       -0.888606    0.807682   -2.438698
     10          1           0       -0.888606   -0.807682   -2.438698
 ---------------------------------------------------------------------
                    Distance matrix (angstroms):
                    1          2          3          4          5
     1  C    0.000000
     2  O    1.354310   0.000000
     3  O    1.196080   2.213015   0.000000
     4  H    1.917667   0.961906   3.001554   0.000000
     5  C    1.522690   2.429634   2.412242   2.387907   0.000000
     6  N    2.504650   3.709469   2.837153   3.811128   1.440730
     7  H    2.128322   2.668855   3.096477   2.387566   1.092610
     8  H    2.128322   2.668855   3.096477   2.387566   1.092610
     9  H    2.718312   3.978553   2.777753   4.210153   2.026216
    10  H    2.718312   3.978553   2.777753   4.210153   2.026216
                    6          7          8          9         10
     6  N    0.000000
     7  H    2.077890   0.000000
     8  H    2.077890   1.752306   0.000000
     9  H    1.011130   2.392948   2.925203   0.000000
    10  H    1.011130   2.925203   2.392948   1.615364   0.000000
 Stoichiometry    C2H5NO2
 Framework group  CS[SG(C2HNO2),X(H4)]
 Deg. of freedom    15
 Full point group                 CS      NOp   2
 Largest Abelian subgroup         CS      NOp   2
 Largest concise Abelian subgroup CS      NOp   2
                         Standard orientation:                         
 ---------------------------------------------------------------------
 Center     Atomic      Atomic             Coordinates (Angstroms)
 Number     Number       Type             X           Y           Z
 ---------------------------------------------------------------------
      1          6           0       -0.000000    0.573396    0.000000
      2          8           0        0.957640    1.531040    0.000000
      3          8           0       -1.156728    0.877678    0.000000
      4          1           0        1.833849    1.134152   -0.000000
      5          6           0        0.517981   -0.858483   -0.000000
      6          7           0       -0.496418   -1.881566   -0.000000
      7          1           0        1.159024   -0.981844    0.876153
      8          1           0        1.159024   -0.981844   -0.876153
      9          1           0       -1.096075   -1.779366    0.807682
     10          1           0       -1.096075   -1.779366   -0.807682
 ---------------------------------------------------------------------
 Rotational constants (GHZ):          10.2385392           3.9139580           2.9253534
 Leave Link  202 at Thu Apr 15 12:40:57 2021, MaxMem= 13421772800 cpu:               2.7 elap:               0.1
 (Enter /home/hexuye/G16_1123/data2/software/Gaussian/g16_from_xuruiqin/g16/l301.exe)
 General basis read from cards:  (5D, 7F)
 Centers:       4      7      8      9     10
 S 5 1.00
     Exponent=  3.3870000000D+01 Coefficients=  6.0680000000D-03
     Exponent=  5.0950000000D+00 Coefficients=  4.5308000000D-02
     Exponent=  1.1590000000D+00 Coefficients=  2.0282200000D-01
     Exponent=  3.2580000000D-01 Coefficients=  5.0390300000D-01
     Exponent=  1.0270000000D-01 Coefficients=  3.8342100000D-01
 S 1 1.00
     Exponent=  3.2580000000D-01 Coefficients=  1.0000000000D+00
 S 1 1.00
     Exponent=  1.0270000000D-01 Coefficients=  1.0000000000D+00
 P 1 1.00
     Exponent=  1.4070000000D+00 Coefficients=  1.0000000000D+00
 P 1 1.00
     Exponent=  3.8800000000D-01 Coefficients=  1.0000000000D+00
 D 1 1.00
     Exponent=  1.0570000000D+00 Coefficients=  1.0000000000D+00
 ****
 Centers:       1      5
 S 10 1.00
     Exponent=  8.2360000000D+03 Coefficients=  5.3100000000D-04
     Exponent=  1.2350000000D+03 Coefficients=  4.1080000000D-03
     Exponent=  2.8080000000D+02 Coefficients=  2.1087000000D-02
     Exponent=  7.9270000000D+01 Coefficients=  8.1853000000D-02
     Exponent=  2.5590000000D+01 Coefficients=  2.3481700000D-01
     Exponent=  8.9970000000D+00 Coefficients=  4.3440100000D-01
     Exponent=  3.3190000000D+00 Coefficients=  3.4612900000D-01
     Exponent=  9.0590000000D-01 Coefficients=  3.9378000000D-02
     Exponent=  3.6430000000D-01 Coefficients= -8.9830000000D-03
     Exponent=  1.2850000000D-01 Coefficients=  2.3850000000D-03
 S 10 1.00
     Exponent=  8.2360000000D+03 Coefficients= -1.1300000000D-04
     Exponent=  1.2350000000D+03 Coefficients= -8.7800000000D-04
     Exponent=  2.8080000000D+02 Coefficients= -4.5400000000D-03
     Exponent=  7.9270000000D+01 Coefficients= -1.8133000000D-02
     Exponent=  2.5590000000D+01 Coefficients= -5.5760000000D-02
     Exponent=  8.9970000000D+00 Coefficients= -1.2689500000D-01
     Exponent=  3.3190000000D+00 Coefficients= -1.7035200000D-01
     Exponent=  9.0590000000D-01 Coefficients=  1.4038200000D-01
     Exponent=  3.6430000000D-01 Coefficients=  5.9868400000D-01
     Exponent=  1.2850000000D-01 Coefficients=  3.9538900000D-01
 S 1 1.00
     Exponent=  8.8280000000D+00 Coefficients=  1.0000000000D+00
 S 1 1.00
     Exponent=  3.4740000000D+00 Coefficients=  1.0000000000D+00
 S 1 1.00
     Exponent=  9.0590000000D-01 Coefficients=  1.0000000000D+00
 S 1 1.00
     Exponent=  1.2850000000D-01 Coefficients=  1.0000000000D+00
 P 5 1.00
     Exponent=  1.8710000000D+01 Coefficients=  1.4031000000D-02
     Exponent=  4.1330000000D+00 Coefficients=  8.6866000000D-02
     Exponent=  1.2000000000D+00 Coefficients=  2.9021600000D-01
     Exponent=  3.8270000000D-01 Coefficients=  5.0100800000D-01
     Exponent=  1.2090000000D-01 Coefficients=  3.4340600000D-01
 P 1 1.00
     Exponent=  2.1552000000D+01 Coefficients=  1.0000000000D+00
 P 1 1.00
     Exponent=  5.4420000000D+00 Coefficients=  1.0000000000D+00
 P 1 1.00
     Exponent=  3.8270000000D-01 Coefficients=  1.0000000000D+00
 P 1 1.00
     Exponent=  1.2090000000D-01 Coefficients=  1.0000000000D+00
 D 1 1.00
     Exponent=  4.9500000000D+00 Coefficients=  1.0000000000D+00
 D 1 1.00
     Exponent=  1.0970000000D+00 Coefficients=  1.0000000000D+00
 D 1 1.00
     Exponent=  3.1800000000D-01 Coefficients=  1.0000000000D+00
 F 1 1.00
     Exponent=  7.6100000000D-01 Coefficients=  1.0000000000D+00
 ****
 Centers:       6
 S 10 1.00
     Exponent=  1.1420000000D+04 Coefficients=  5.2300000000D-04
     Exponent=  1.7120000000D+03 Coefficients=  4.0450000000D-03
     Exponent=  3.8930000000D+02 Coefficients=  2.0775000000D-02
     Exponent=  1.1000000000D+02 Coefficients=  8.0727000000D-02
     Exponent=  3.5570000000D+01 Coefficients=  2.3307400000D-01
     Exponent=  1.2540000000D+01 Coefficients=  4.3350100000D-01
     Exponent=  4.6440000000D+00 Coefficients=  3.4747200000D-01
     Exponent=  1.2930000000D+00 Coefficients=  4.1262000000D-02
     Exponent=  5.1180000000D-01 Coefficients= -8.5080000000D-03
     Exponent=  1.7870000000D-01 Coefficients=  2.3840000000D-03
 S 10 1.00
     Exponent=  1.1420000000D+04 Coefficients= -1.1500000000D-04
     Exponent=  1.7120000000D+03 Coefficients= -8.9500000000D-04
     Exponent=  3.8930000000D+02 Coefficients= -4.6240000000D-03
     Exponent=  1.1000000000D+02 Coefficients= -1.8528000000D-02
     Exponent=  3.5570000000D+01 Coefficients= -5.7339000000D-02
     Exponent=  1.2540000000D+01 Coefficients= -1.3207600000D-01
     Exponent=  4.6440000000D+00 Coefficients= -1.7251000000D-01
     Exponent=  1.2930000000D+00 Coefficients=  1.5181400000D-01
     Exponent=  5.1180000000D-01 Coefficients=  5.9994400000D-01
     Exponent=  1.7870000000D-01 Coefficients=  3.8746200000D-01
 S 1 1.00
     Exponent=  1.1807000000D+01 Coefficients=  1.0000000000D+00
 S 1 1.00
     Exponent=  4.7330000000D+00 Coefficients=  1.0000000000D+00
 S 1 1.00
     Exponent=  1.2930000000D+00 Coefficients=  1.0000000000D+00
 S 1 1.00
     Exponent=  1.7870000000D-01 Coefficients=  1.0000000000D+00
 P 5 1.00
     Exponent=  2.6630000000D+01 Coefficients=  1.4670000000D-02
     Exponent=  5.9480000000D+00 Coefficients=  9.1764000000D-02
     Exponent=  1.7420000000D+00 Coefficients=  2.9868300000D-01
     Exponent=  5.5500000000D-01 Coefficients=  4.9848700000D-01
     Exponent=  1.7250000000D-01 Coefficients=  3.3702300000D-01
 P 1 1.00
     Exponent=  2.9818000000D+01 Coefficients=  1.0000000000D+00
 P 1 1.00
     Exponent=  7.7430000000D+00 Coefficients=  1.0000000000D+00
 P 1 1.00
     Exponent=  5.5500000000D-01 Coefficients=  1.0000000000D+00
 P 1 1.00
     Exponent=  1.7250000000D-01 Coefficients=  1.0000000000D+00
 D 1 1.00
     Exponent=  7.3520000000D+00 Coefficients=  1.0000000000D+00
 D 1 1.00
     Exponent=  1.6540000000D+00 Coefficients=  1.0000000000D+00
 D 1 1.00
     Exponent=  4.6900000000D-01 Coefficients=  1.0000000000D+00
 F 1 1.00
     Exponent=  1.0930000000D+00 Coefficients=  1.0000000000D+00
 ****
 Centers:       2      3
 S 10 1.00
     Exponent=  1.5330000000D+04 Coefficients=  5.0800000000D-04
     Exponent=  2.2990000000D+03 Coefficients=  3.9290000000D-03
     Exponent=  5.2240000000D+02 Coefficients=  2.0243000000D-02
     Exponent=  1.4730000000D+02 Coefficients=  7.9181000000D-02
     Exponent=  4.7550000000D+01 Coefficients=  2.3068700000D-01
     Exponent=  1.6760000000D+01 Coefficients=  4.3311800000D-01
     Exponent=  6.2070000000D+00 Coefficients=  3.5026000000D-01
     Exponent=  1.7520000000D+00 Coefficients=  4.2728000000D-02
     Exponent=  6.8820000000D-01 Coefficients= -8.1540000000D-03
     Exponent=  2.3840000000D-01 Coefficients=  2.3810000000D-03
 S 10 1.00
     Exponent=  1.5330000000D+04 Coefficients= -1.1500000000D-04
     Exponent=  2.2990000000D+03 Coefficients= -8.9500000000D-04
     Exponent=  5.2240000000D+02 Coefficients= -4.6360000000D-03
     Exponent=  1.4730000000D+02 Coefficients= -1.8724000000D-02
     Exponent=  4.7550000000D+01 Coefficients= -5.8463000000D-02
     Exponent=  1.6760000000D+01 Coefficients= -1.3646300000D-01
     Exponent=  6.2070000000D+00 Coefficients= -1.7574000000D-01
     Exponent=  1.7520000000D+00 Coefficients=  1.6093400000D-01
     Exponent=  6.8820000000D-01 Coefficients=  6.0341800000D-01
     Exponent=  2.3840000000D-01 Coefficients=  3.7876500000D-01
 S 1 1.00
     Exponent=  1.5381000000D+01 Coefficients=  1.0000000000D+00
 S 1 1.00
     Exponent=  6.2450000000D+00 Coefficients=  1.0000000000D+00
 S 1 1.00
     Exponent=  1.7520000000D+00 Coefficients=  1.0000000000D+00
 S 1 1.00
     Exponent=  2.3840000000D-01 Coefficients=  1.0000000000D+00
 P 5 1.00
     Exponent=  3.4460000000D+01 Coefficients=  1.5928000000D-02
     Exponent=  7.7490000000D+00 Coefficients=  9.9740000000D-02
     Exponent=  2.2800000000D+00 Coefficients=  3.1049200000D-01
     Exponent=  7.1560000000D-01 Coefficients=  4.9102600000D-01
     Exponent=  2.1400000000D-01 Coefficients=  3.3633700000D-01
 P 1 1.00
     Exponent=  3.8484000000D+01 Coefficients=  1.0000000000D+00
 P 1 1.00
     Exponent=  1.0216000000D+01 Coefficients=  1.0000000000D+00
 P 1 1.00
     Exponent=  7.1560000000D-01 Coefficients=  1.0000000000D+00
 P 1 1.00
     Exponent=  2.1400000000D-01 Coefficients=  1.0000000000D+00
 D 1 1.00
     Exponent=  1.0238000000D+01 Coefficients=  1.0000000000D+00
 D 1 1.00
     Exponent=  2.3140000000D+00 Coefficients=  1.0000000000D+00
 D 1 1.00
     Exponent=  6.4500000000D-01 Coefficients=  1.0000000000D+00
 F 1 1.00
     Exponent=  1.4280000000D+00 Coefficients=  1.0000000000D+00
 ****
 Ernie: Thresh=  0.10000D-02 Tol=  0.10000D-05 Strict=F.
 Ernie:  35 primitive shells out of 235 were deleted.
 There are   211 symmetry adapted cartesian basis functions of A'  symmetry.
 There are   109 symmetry adapted cartesian basis functions of A"  symmetry.
 There are   183 symmetry adapted basis functions of A'  symmetry.
 There are   102 symmetry adapted basis functions of A"  symmetry.
   285 basis functions,   455 primitive gaussians,   320 cartesian basis functions
    20 alpha electrons       20 beta electrons
       nuclear repulsion energy       179.6626220275 Hartrees.
 IExCor=    0 DFT=F Ex=HF Corr=None ExCW=0 ScaHFX=  1.000000
 ScaDFX=  1.000000  1.000000  1.000000  1.000000 ScalE2=  1.000000  1.000000
 IRadAn=      5 IRanWt=     -1 IRanGd=            0 ICorTp=0 IEmpDi=  4
 NAtoms=   10 NActive=   10 NUniq=    8 SFac= 1.56D+00 NAtFMM=   60 NAOKFM=F Big=F
 Integral buffers will be    131072 words long.
 Raffenetti 1 integral format.
 Two-electron integral symmetry is turned on.
 Leave Link  301 at Thu Apr 15 12:40:57 2021, MaxMem= 13421772800 cpu:              15.1 elap:               0.3
 (Enter /home/hexuye/G16_1123/data2/software/Gaussian/g16_from_xuruiqin/g16/l302.exe)
 NPDir=0 NMtPBC=     1 NCelOv=     1 NCel=       1 NClECP=     1 NCelD=      1
         NCelK=      1 NCelE2=     1 NClLst=     1 CellRange=     0.0.
 One-electron integrals computed using PRISM.
 One-electron integral symmetry used in STVInt
 NBasis=   285 RedAO= T EigKep=  4.10D-04  NBF=   183   102
 NBsUse=   285 1.00D-06 EigRej= -1.00D+00 NBFU=   183   102
 Leave Link  302 at Thu Apr 15 12:40:58 2021, MaxMem= 13421772800 cpu:              23.6 elap:               0.4
 (Enter /home/hexuye/G16_1123/data2/software/Gaussian/g16_from_xuruiqin/g16/l303.exe)
 DipDrv:  MaxL=1.
 Leave Link  303 at Thu Apr 15 12:40:58 2021, MaxMem= 13421772800 cpu:               5.7 elap:               0.1
 (Enter /home/hexuye/G16_1123/data2/software/Gaussian/g16_from_xuruiqin/g16/l401.exe)
 ExpMin= 1.03D-01 ExpMax= 1.53D+04 ExpMxC= 5.22D+02 IAcc=3 IRadAn=         5 AccDes= 0.00D+00
 Harris functional with IExCor=  205 and IRadAn=       5 diagonalized for initial guess.
 HarFok:  IExCor=  205 AccDes= 0.00D+00 IRadAn=         5 IDoV= 1 UseB2=F ITyADJ=14
 ICtDFT=  3500011 ScaDFX=  1.000000  1.000000  1.000000  1.000000
 FoFCou: FMM=F IPFlag=           0 FMFlag=      100000 FMFlg1=           0
         NFxFlg=           0 DoJE=T BraDBF=F KetDBF=T FulRan=T
         wScrn=  0.000000 ICntrl=       500 IOpCl=  0 I1Cent=   200000004 NGrid=           0
         NMat0=    1 NMatS0=      1 NMatT0=    0 NMatD0=    1 NMtDS0=    0 NMtDT0=    0
 Petite list used in FoFCou.
 Harris En= -283.230273306742    
 JPrj=0 DoOrth=F DoCkMO=F.
 Initial guess orbital symmetries:
       Occupied  (A') (A') (A') (A') (A') (A') (A') (A') (A') (A')
                 (A') (A") (A') (A') (A") (A') (A") (A") (A') (A')
       Virtual   (A") (A') (A') (A") (A') (A") (A') (A') (A') (A')
                 (A") (A') (A') (A") (A') (A') (A') (A") (A") (A')
                 (A') (A') (A') (A') (A") (A") (A') (A') (A") (A')
                 (A") (A') (A') (A') (A") (A") (A") (A') (A') (A')
                 (A") (A') (A') (A") (A") (A') (A') (A") (A") (A')
                 (A') (A') (A") (A') (A') (A") (A') (A') (A') (A")
                 (A') (A") (A') (A') (A') (A") (A") (A') (A") (A')
                 (A') (A') (A") (A') (A") (A') (A') (A") (A') (A')
                 (A') (A") (A') (A') (A') (A") (A') (A") (A') (A')
                 (A") (A") (A') (A') (A") (A') (A") (A") (A') (A')
                 (A") (A') (A') (A') (A") (A") (A") (A") (A') (A")
                 (A') (A") (A') (A") (A') (A") (A') (A') (A') (A")
                 (A") (A') (A') (A') (A") (A') (A") (A") (A") (A')
                 (A") (A') (A') (A') (A') (A") (A') (A") (A') (A')
                 (A') (A") (A") (A') (A") (A') (A') (A') (A') (A')
                 (A") (A') (A") (A') (A") (A') (A') (A') (A") (A')
                 (A") (A") (A') (A') (A') (A") (A') (A') (A') (A")
                 (A') (A") (A') (A") (A') (A') (A") (A') (A") (A")
                 (A') (A") (A") (A') (A') (A") (A') (A") (A') (A')
                 (A") (A") (A") (A') (A') (A') (A') (A') (A') (A')
                 (A") (A') (A') (A') (A") (A') (A') (A') (A') (A")
                 (A') (A") (A') (A") (A') (A") (A') (A") (A') (A')
                 (A') (A') (A") (A") (A') (A') (A') (A') (A') (A")
                 (A') (A') (A") (A') (A') (A") (A') (A") (A") (A")
                 (A') (A') (A') (A') (A') (A") (A') (A') (A') (A")
                 (A') (A') (A') (A') (A") (A') (A') (A") (A") (A')
                 (A') (A') (A') (A') (A')
 The electronic state of the initial guess is 1-A'.
 Leave Link  401 at Thu Apr 15 12:40:59 2021, MaxMem= 13421772800 cpu:              48.4 elap:               0.8
 (Enter /home/hexuye/G16_1123/data2/software/Gaussian/g16_from_xuruiqin/g16/l502.exe)
 Keep R1 ints in memory in symmetry-blocked form, NReq=1248785029.
 FoFCou: FMM=F IPFlag=           0 FMFlag=           0 FMFlg1=           0
         NFxFlg=           0 DoJE=F BraDBF=F KetDBF=F FulRan=T
         wScrn=  0.000000 ICntrl=       600 IOpCl=  0 I1Cent=           0 NGrid=           0
         NMat0=    1 NMatS0=  40755 NMatT0=    0 NMatD0=    1 NMtDS0=    0 NMtDT0=    0
 Petite list used in FoFCou.
 Closed shell SCF:
 Using DIIS extrapolation, IDIIS=  1040.
 NGot= 13421772800 LenX= 13003266795 LenY= 13003163954
 Requested convergence on RMS density matrix=1.00D-08 within 128 cycles.
 Requested convergence on MAX density matrix=1.00D-06.
 Requested convergence on             energy=1.00D-06.
 No special actions if energy rises.

 Cycle   1  Pass 1  IDiag  1:
 E= -282.691067535822    
 DIIS: error= 5.23D-02 at cycle   1 NSaved=   1.
 NSaved= 1 IEnMin= 1 EnMin= -282.691067535822     IErMin= 1 ErrMin= 5.23D-02
 ErrMax= 5.23D-02  0.00D+00 EMaxC= 1.00D-01 BMatC= 6.83D-01 BMatP= 6.83D-01
 IDIUse=3 WtCom= 4.77D-01 WtEn= 5.23D-01
 Coeff-Com:  0.100D+01
 Coeff-En:   0.100D+01
 Coeff:      0.100D+01
 Gap=     0.450 Goal=   None    Shift=    0.000
 GapD=    0.450 DampG=2.000 DampE=0.500 DampFc=1.0000 IDamp=-1.
 RMSDP=4.16D-03 MaxDP=2.79D-01              OVMax= 1.29D-01

 Cycle   2  Pass 1  IDiag  1:
 E= -282.882695483994     Delta-E=       -0.191627948172 Rises=F Damp=F
 DIIS: error= 2.17D-02 at cycle   2 NSaved=   2.
 NSaved= 2 IEnMin= 2 EnMin= -282.882695483994     IErMin= 2 ErrMin= 2.17D-02
 ErrMax= 2.17D-02  0.00D+00 EMaxC= 1.00D-01 BMatC= 8.73D-02 BMatP= 6.83D-01
 IDIUse=3 WtCom= 7.83D-01 WtEn= 2.17D-01
 Coeff-Com:  0.187D+00 0.813D+00
 Coeff-En:   0.000D+00 0.100D+01
 Coeff:      0.146D+00 0.854D+00
 Gap=     0.565 Goal=   None    Shift=    0.000
 RMSDP=1.68D-03 MaxDP=1.36D-01 DE=-1.92D-01 OVMax= 5.80D-02

 Cycle   3  Pass 1  IDiag  1:
 E= -282.930294101483     Delta-E=       -0.047598617489 Rises=F Damp=F
 DIIS: error= 7.82D-03 at cycle   3 NSaved=   3.
 NSaved= 3 IEnMin= 3 EnMin= -282.930294101483     IErMin= 3 ErrMin= 7.82D-03
 ErrMax= 7.82D-03  0.00D+00 EMaxC= 1.00D-01 BMatC= 1.56D-02 BMatP= 8.73D-02
 IDIUse=3 WtCom= 9.22D-01 WtEn= 7.82D-02
 Coeff-Com: -0.247D-01 0.272D+00 0.753D+00
 Coeff-En:   0.000D+00 0.000D+00 0.100D+01
 Coeff:     -0.228D-01 0.251D+00 0.772D+00
 Gap=     0.533 Goal=   None    Shift=    0.000
 RMSDP=4.84D-04 MaxDP=5.83D-02 DE=-4.76D-02 OVMax= 3.15D-02

 Cycle   4  Pass 1  IDiag  1:
 E= -282.939993658767     Delta-E=       -0.009699557284 Rises=F Damp=F
 DIIS: error= 1.75D-03 at cycle   4 NSaved=   4.
 NSaved= 4 IEnMin= 4 EnMin= -282.939993658767     IErMin= 4 ErrMin= 1.75D-03
 ErrMax= 1.75D-03  0.00D+00 EMaxC= 1.00D-01 BMatC= 5.27D-04 BMatP= 1.56D-02
 IDIUse=3 WtCom= 9.83D-01 WtEn= 1.75D-02
 Coeff-Com: -0.111D-01 0.582D-01 0.246D+00 0.706D+00
 Coeff-En:   0.000D+00 0.000D+00 0.000D+00 0.100D+01
 Coeff:     -0.109D-01 0.572D-01 0.242D+00 0.712D+00
 Gap=     0.529 Goal=   None    Shift=    0.000
 RMSDP=1.08D-04 MaxDP=1.04D-02 DE=-9.70D-03 OVMax= 5.47D-03

 Cycle   5  Pass 1  IDiag  1:
 E= -282.940419202853     Delta-E=       -0.000425544086 Rises=F Damp=F
 DIIS: error= 5.72D-04 at cycle   5 NSaved=   5.
 NSaved= 5 IEnMin= 5 EnMin= -282.940419202853     IErMin= 5 ErrMin= 5.72D-04
 ErrMax= 5.72D-04  0.00D+00 EMaxC= 1.00D-01 BMatC= 2.94D-05 BMatP= 5.27D-04
 IDIUse=3 WtCom= 9.94D-01 WtEn= 5.72D-03
 Coeff-Com:  0.227D-02-0.257D-01-0.755D-01 0.204D-01 0.108D+01
 Coeff-En:   0.000D+00 0.000D+00 0.000D+00 0.000D+00 0.100D+01
 Coeff:      0.226D-02-0.256D-01-0.751D-01 0.203D-01 0.108D+01
 Gap=     0.530 Goal=   None    Shift=    0.000
 RMSDP=4.82D-05 MaxDP=4.62D-03 DE=-4.26D-04 OVMax= 3.92D-03

 Cycle   6  Pass 1  IDiag  1:
 E= -282.940474473249     Delta-E=       -0.000055270396 Rises=F Damp=F
 DIIS: error= 1.15D-04 at cycle   6 NSaved=   6.
 NSaved= 6 IEnMin= 6 EnMin= -282.940474473249     IErMin= 6 ErrMin= 1.15D-04
 ErrMax= 1.15D-04  0.00D+00 EMaxC= 1.00D-01 BMatC= 4.38D-06 BMatP= 2.94D-05
 IDIUse=3 WtCom= 9.99D-01 WtEn= 1.15D-03
 Coeff-Com:  0.145D-02-0.110D-01-0.374D-01-0.749D-01 0.192D+00 0.930D+00
 Coeff-En:   0.000D+00 0.000D+00 0.000D+00 0.000D+00 0.000D+00 0.100D+01
 Coeff:      0.145D-02-0.109D-01-0.374D-01-0.748D-01 0.191D+00 0.930D+00
 Gap=     0.530 Goal=   None    Shift=    0.000
 RMSDP=1.90D-05 MaxDP=1.50D-03 DE=-5.53D-05 OVMax= 1.12D-03

 Cycle   7  Pass 1  IDiag  1:
 E= -282.940482368351     Delta-E=       -0.000007895102 Rises=F Damp=F
 DIIS: error= 6.50D-05 at cycle   7 NSaved=   7.
 NSaved= 7 IEnMin= 7 EnMin= -282.940482368351     IErMin= 7 ErrMin= 6.50D-05
 ErrMax= 6.50D-05  0.00D+00 EMaxC= 1.00D-01 BMatC= 5.84D-07 BMatP= 4.38D-06
 IDIUse=1 WtCom= 1.00D+00 WtEn= 0.00D+00
 Coeff-Com: -0.192D-03 0.260D-02 0.923D-02-0.140D-01-0.123D+00 0.323D-01
 Coeff-Com:  0.109D+01
 Coeff:     -0.192D-03 0.260D-02 0.923D-02-0.140D-01-0.123D+00 0.323D-01
 Coeff:      0.109D+01
 Gap=     0.530 Goal=   None    Shift=    0.000
 RMSDP=7.41D-06 MaxDP=7.45D-04 DE=-7.90D-06 OVMax= 7.58D-04

 Cycle   8  Pass 1  IDiag  1:
 E= -282.940483836166     Delta-E=       -0.000001467816 Rises=F Damp=F
 DIIS: error= 1.90D-05 at cycle   8 NSaved=   8.
 NSaved= 8 IEnMin= 8 EnMin= -282.940483836166     IErMin= 8 ErrMin= 1.90D-05
 ErrMax= 1.90D-05  0.00D+00 EMaxC= 1.00D-01 BMatC= 8.33D-08 BMatP= 5.84D-07
 IDIUse=1 WtCom= 1.00D+00 WtEn= 0.00D+00
 Coeff-Com: -0.174D-03 0.129D-02 0.453D-02 0.611D-02-0.878D-02-0.119D+00
 Coeff-Com: -0.105D+00 0.122D+01
 Coeff:     -0.174D-03 0.129D-02 0.453D-02 0.611D-02-0.878D-02-0.119D+00
 Coeff:     -0.105D+00 0.122D+01
 Gap=     0.530 Goal=   None    Shift=    0.000
 RMSDP=3.10D-06 MaxDP=3.23D-04 DE=-1.47D-06 OVMax= 3.11D-04

 Cycle   9  Pass 1  IDiag  1:
 E= -282.940484057360     Delta-E=       -0.000000221193 Rises=F Damp=F
 DIIS: error= 5.51D-06 at cycle   9 NSaved=   9.
 NSaved= 9 IEnMin= 9 EnMin= -282.940484057360     IErMin= 9 ErrMin= 5.51D-06
 ErrMax= 5.51D-06  0.00D+00 EMaxC= 1.00D-01 BMatC= 1.09D-08 BMatP= 8.33D-08
 IDIUse=1 WtCom= 1.00D+00 WtEn= 0.00D+00
 Coeff-Com: -0.117D-04-0.689D-04-0.232D-03 0.231D-02 0.165D-01-0.292D-01
 Coeff-Com: -0.166D+00 0.240D+00 0.937D+00
 Coeff:     -0.117D-04-0.689D-04-0.232D-03 0.231D-02 0.165D-01-0.292D-01
 Coeff:     -0.166D+00 0.240D+00 0.937D+00
 Gap=     0.530 Goal=   None    Shift=    0.000
 RMSDP=1.02D-06 MaxDP=9.42D-05 DE=-2.21D-07 OVMax= 9.27D-05

 Cycle  10  Pass 1  IDiag  1:
 E= -282.940484079472     Delta-E=       -0.000000022112 Rises=F Damp=F
 DIIS: error= 2.05D-06 at cycle  10 NSaved=  10.
 NSaved=10 IEnMin=10 EnMin= -282.940484079472     IErMin=10 ErrMin= 2.05D-06
 ErrMax= 2.05D-06  0.00D+00 EMaxC= 1.00D-01 BMatC= 9.85D-10 BMatP= 1.09D-08
 IDIUse=1 WtCom= 1.00D+00 WtEn= 0.00D+00
 Coeff-Com:  0.221D-04-0.171D-03-0.566D-03-0.114D-02 0.169D-02 0.147D-01
 Coeff-Com:  0.187D-01-0.165D+00-0.184D-01 0.115D+01
 Coeff:      0.221D-04-0.171D-03-0.566D-03-0.114D-02 0.169D-02 0.147D-01
 Coeff:      0.187D-01-0.165D+00-0.184D-01 0.115D+01
 Gap=     0.530 Goal=   None    Shift=    0.000
 RMSDP=3.72D-07 MaxDP=3.59D-05 DE=-2.21D-08 OVMax= 2.64D-05

 Cycle  11  Pass 1  IDiag  1:
 E= -282.940484081794     Delta-E=       -0.000000002322 Rises=F Damp=F
 DIIS: error= 5.44D-07 at cycle  11 NSaved=  11.
 NSaved=11 IEnMin=11 EnMin= -282.940484081794     IErMin=11 ErrMin= 5.44D-07
 ErrMax= 5.44D-07  0.00D+00 EMaxC= 1.00D-01 BMatC= 6.29D-11 BMatP= 9.85D-10
 IDIUse=1 WtCom= 1.00D+00 WtEn= 0.00D+00
 Coeff-Com:  0.339D-06 0.621D-05 0.422D-04-0.134D-03-0.924D-03 0.653D-03
 Coeff-Com:  0.974D-02-0.313D-02-0.673D-01-0.100D+00 0.116D+01
 Coeff:      0.339D-06 0.621D-05 0.422D-04-0.134D-03-0.924D-03 0.653D-03
 Coeff:      0.974D-02-0.313D-02-0.673D-01-0.100D+00 0.116D+01
 Gap=     0.530 Goal=   None    Shift=    0.000
 RMSDP=9.44D-08 MaxDP=6.94D-06 DE=-2.32D-09 OVMax= 4.67D-06

 Cycle  12  Pass 1  IDiag  1:
 E= -282.940484081930     Delta-E=       -0.000000000136 Rises=F Damp=F
 DIIS: error= 1.37D-07 at cycle  12 NSaved=  12.
 NSaved=12 IEnMin=12 EnMin= -282.940484081930     IErMin=12 ErrMin= 1.37D-07
 ErrMax= 1.37D-07  0.00D+00 EMaxC= 1.00D-01 BMatC= 3.98D-12 BMatP= 6.29D-11
 IDIUse=1 WtCom= 1.00D+00 WtEn= 0.00D+00
 Coeff-Com: -0.158D-05 0.127D-04 0.448D-04 0.711D-04-0.149D-03-0.108D-02
 Coeff-Com: -0.137D-02 0.133D-01-0.101D-02-0.904D-01 0.504D-01 0.103D+01
 Coeff:     -0.158D-05 0.127D-04 0.448D-04 0.711D-04-0.149D-03-0.108D-02
 Coeff:     -0.137D-02 0.133D-01-0.101D-02-0.904D-01 0.504D-01 0.103D+01
 Gap=     0.530 Goal=   None    Shift=    0.000
 RMSDP=1.96D-08 MaxDP=1.39D-06 DE=-1.36D-10 OVMax= 1.04D-06

 Cycle  13  Pass 1  IDiag  1:
 E= -282.940484081937     Delta-E=       -0.000000000007 Rises=F Damp=F
 DIIS: error= 4.88D-08 at cycle  13 NSaved=  13.
 NSaved=13 IEnMin=13 EnMin= -282.940484081937     IErMin=13 ErrMin= 4.88D-08
 ErrMax= 4.88D-08  0.00D+00 EMaxC= 1.00D-01 BMatC= 3.63D-13 BMatP= 3.98D-12
 IDIUse=1 WtCom= 1.00D+00 WtEn= 0.00D+00
 Coeff-Com:  0.105D-06-0.156D-05-0.731D-05 0.551D-05 0.108D-03 0.303D-04
 Coeff-Com: -0.100D-02-0.262D-03 0.654D-02 0.127D-01-0.114D+00-0.189D-01
 Coeff-Com:  0.111D+01
 Coeff:      0.105D-06-0.156D-05-0.731D-05 0.551D-05 0.108D-03 0.303D-04
 Coeff:     -0.100D-02-0.262D-03 0.654D-02 0.127D-01-0.114D+00-0.189D-01
 Coeff:      0.111D+01
 Gap=     0.530 Goal=   None    Shift=    0.000
 RMSDP=6.43D-09 MaxDP=4.60D-07 DE=-6.71D-12 OVMax= 3.23D-07

 SCF Done:  E(RHF) =  -282.940484082     A.U. after   13 cycles
            NFock= 13  Conv=0.64D-08     -V/T= 2.0010
 KE= 2.826590481389D+02 PE=-1.025719013174D+03 EE= 2.804568589258D+02
 Leave Link  502 at Thu Apr 15 12:41:17 2021, MaxMem= 13421772800 cpu:             587.7 elap:              18.4
 (Enter /home/hexuye/G16_1123/data2/software/Gaussian/g16_from_xuruiqin/g16/l801.exe)
 Windowed orbitals will be sorted by symmetry type.
 Range of M.O.s used for correlation:     1   285
 NBasis=   285 NAE=    20 NBE=    20 NFC=     0 NFV=     0
 NROrb=    285 NOA=    20 NOB=    20 NVA=   265 NVB=   265

 **** Warning!!: The largest alpha MO coefficient is  0.14611172D+02

 Leave Link  801 at Thu Apr 15 12:41:18 2021, MaxMem= 13421772800 cpu:               3.7 elap:               0.1
 (Enter /home/hexuye/G16_1123/data2/software/Gaussian/g16_from_xuruiqin/g16/l804.exe)
 Closed-shell transformation, MDV= 13421772800 ITran=4 ISComp=2.
 Unit  1 TFree=       2681952 TCopy=       1398376.
 Semi-Direct transformation.
 ModeAB=           4 MOrb=            20 LenV=   13419611799
 LASXX=    111947501 LTotXX=   111947501 LenRXX=   225194543
 LTotAB=   113247042 MaxLAS=   231950100 LenRXY=           0
 NonZer=   337142044 LenScr=   506068992 LnRSAI=   231950100
 LnScr1=   348127232 LExtra=           0 Total=   1311340867
 MaxDsk=          -1 SrtSym=           T ITran=            4
 DoSDTr:  NPSUse= 64
 JobTyp=0 Pass  1:  I=   1 to  20.
 (rs|ai) integrals will be sorted in core.
 Complete sort for first half transformation.
 First half transformation complete.
 Begin second half transformation for I=  10.
 Begin second half transformation for I=  20.
 Complete sort for second half transformation.
 Second half transformation complete.
 Spin components of T(2) and E(2):
     alpha-alpha T2 =       0.3596945820D-01 E2=     -0.1435082531D+00
     alpha-beta  T2 =       0.2016166087D+00 E2=     -0.9835910783D+00
     beta-beta   T2 =       0.3596945820D-01 E2=     -0.1435082531D+00
 ANorm=    0.1128519174D+01
 E2 =    -0.1270607585D+01 EUMP2 =    -0.28421109166652D+03
 Leave Link  804 at Thu Apr 15 12:42:03 2021, MaxMem= 13421772800 cpu:            2867.8 elap:              45.1
 (Enter /home/hexuye/G16_1123/data2/software/Gaussian/g16_from_xuruiqin/g16/l913.exe)
 CIDS:  MDV= 13421772800.
 IFCWin=0 IBDFC=1 NFBD=     0     0 NFCmp=     0     0 NFFFC=     0     0
 Using DD3R+UMP44R for 1st iteration.
 Using DD4RQ for 2nd and later iterations.
 Keep R2 and R3 ints in memory in symmetry-blocked form, NReq=1254677581.
 FoFCou: FMM=F IPFlag=           0 FMFlag=           0 FMFlg1=           0
         NFxFlg=           0 DoJE=F BraDBF=F KetDBF=F FulRan=T
         wScrn=  0.000000 ICntrl=       600 IOpCl=  0 I1Cent=           0 NGrid=           0
         NMat0=    1 NMatS0=  40755 NMatT0=    0 NMatD0=    1 NMtDS0=    0 NMtDT0=    0
 Petite list used in FoFCou.
 CIDS: In Core Option IDoMem=           1.
 CCSD(T)
 =======
 Iterations=  50 Convergence= 0.100D-06
 Produce multiple copies of IABC intergrals
 Iteration Nr.   1
 **********************
 DD1Dir will call FoFMem   1 times, MxPair=       420
 NAB=   210 NAA=     0 NBB=     0.
 MP4(R+Q)=  0.24448770D-01
 Maximum subspace dimension=  5
 A-vector RMS=  1.7967546D-03 Max=  2.0903248D-02 conv= 1.00D-05.
 RLE energy=       -1.2636281646
 E3=       -0.18082011D-01        EUMP3=      -0.28422917368D+03
 E4(DQ)=    0.31596660D-02        UMP4(DQ)=   -0.28422601401D+03
 E4(SDQ)=  -0.95659412D-02        UMP4(SDQ)=  -0.28423873962D+03
 VARIATIONAL ENERGIES WITH THE FIRST-ORDER WAVEFUNCTION:
 DE(Corr)=  -1.2635899     E(Corr)=     -284.20407403    
 NORM(A)=   0.11278827D+01
 Iteration Nr.   2
 **********************
 DD1Dir will call FoFMem   1 times, MxPair=       420
 NAB=   210 NAA=     0 NBB=     0.
 A-vector RMS=  2.7855463D-04 Max=  5.2281965D-03 conv= 1.00D-05.
 RLE energy=       -1.2932508448
 DE(Corr)=  -1.2934764     E(CORR)=     -284.23396046     Delta=-2.99D-02
 NORM(A)=   0.11369203D+01
 Iteration Nr.   3
 **********************
 DD1Dir will call FoFMem   1 times, MxPair=       420
 NAB=   210 NAA=     0 NBB=     0.
 A-vector RMS=  3.3833643D-04 Max=  4.6972799D-03 conv= 1.00D-05.
 RLE energy=       -1.2947691573
 DE(Corr)=  -1.2923475     E(CORR)=     -284.23283161     Delta= 1.13D-03
 NORM(A)=   0.11394297D+01
 Iteration Nr.   4
 **********************
 DD1Dir will call FoFMem   1 times, MxPair=       420
 NAB=   210 NAA=     0 NBB=     0.
 A-vector RMS=  5.6316945D-05 Max=  7.3480438D-04 conv= 1.00D-05.
 RLE energy=       -1.2949332327
 DE(Corr)=  -1.2947479     E(CORR)=     -284.23523194     Delta=-2.40D-03
 NORM(A)=   0.11401805D+01
 Iteration Nr.   5
 **********************
 DD1Dir will call FoFMem   1 times, MxPair=       420
 NAB=   210 NAA=     0 NBB=     0.
 A-vector RMS=  3.5992172D-05 Max=  4.5879290D-04 conv= 1.00D-05.
 RLE energy=       -1.2950565813
 DE(Corr)=  -1.2950118     E(CORR)=     -284.23549591     Delta=-2.64D-04
 NORM(A)=   0.11404204D+01
 Iteration Nr.   6
 **********************
 DD1Dir will call FoFMem   1 times, MxPair=       420
 NAB=   210 NAA=     0 NBB=     0.
 A-vector RMS=  9.7177380D-06 Max=  1.5096027D-04 conv= 1.00D-05.
 RLE energy=       -1.2950520913
 DE(Corr)=  -1.2950335     E(CORR)=     -284.23551761     Delta=-2.17D-05
 NORM(A)=   0.11404521D+01
 Iteration Nr.   7
 **********************
 DD1Dir will call FoFMem   1 times, MxPair=       420
 NAB=   210 NAA=     0 NBB=     0.
 A-vector RMS=  4.9069477D-06 Max=  9.9601464D-05 conv= 1.00D-05.
 RLE energy=       -1.2950195261
 DE(Corr)=  -1.2950351     E(CORR)=     -284.23551915     Delta=-1.53D-06
 NORM(A)=   0.11404519D+01
 Iteration Nr.   8
 **********************
 DD1Dir will call FoFMem   1 times, MxPair=       420
 NAB=   210 NAA=     0 NBB=     0.
 A-vector RMS=  1.2922470D-06 Max=  2.0620901D-05 conv= 1.00D-05.
 RLE energy=       -1.2950347310
 DE(Corr)=  -1.2950355     E(CORR)=     -284.23551961     Delta=-4.62D-07
 NORM(A)=   0.11404567D+01
 Iteration Nr.   9
 **********************
 DD1Dir will call FoFMem   1 times, MxPair=       420
 NAB=   210 NAA=     0 NBB=     0.
 A-vector RMS=  5.3701969D-07 Max=  1.2094452D-05 conv= 1.00D-05.
 RLE energy=       -1.2950324827
 DE(Corr)=  -1.2950329     E(CORR)=     -284.23551697     Delta= 2.64D-06
 NORM(A)=   0.11404568D+01
 Iteration Nr.  10
 **********************
 DD1Dir will call FoFMem   1 times, MxPair=       420
 NAB=   210 NAA=     0 NBB=     0.
 A-vector RMS=  2.1411513D-07 Max=  3.0386969D-06 conv= 1.00D-05.
 RLE energy=       -1.2950339744
 DE(Corr)=  -1.2950342     E(CORR)=     -284.23551824     Delta=-1.27D-06
 NORM(A)=   0.11404573D+01
 Iteration Nr.  11
 **********************
 DD1Dir will call FoFMem   1 times, MxPair=       420
 NAB=   210 NAA=     0 NBB=     0.
 A-vector RMS=  1.0849108D-07 Max=  1.8275349D-06 conv= 1.00D-05.
 RLE energy=       -1.2950343273
 DE(Corr)=  -1.2950341     E(CORR)=     -284.23551819     Delta= 5.32D-08
 NORM(A)=   0.11404576D+01
 CI/CC converged in   11 iterations to DelEn= 5.32D-08 Conv= 1.00D-07 ErrA1= 1.08D-07 Conv= 1.00D-05
 Wavefunction amplitudes converged. E(Corr)=     -284.23551819    
 Largest amplitude= 3.41D-02
 IPart= 24 IA=   15   10.31% done.
 IPart= 18 IA=   29   20.05% done.
 IPart=  8 IA=   45   30.50% done.
 IPart=  3 IA=   61   40.22% done.
 IPart= 57 IA=   79   50.28% done.
 IPart= 25 IA=   99   60.37% done.
 IPart= 13 IA=  121   70.15% done.
 IPart= 54 IA=  148   80.27% done.
 IPart= 22 IA=  182   90.03% done.
 Time for triples=   179411.95 seconds.
 T4(CCSD)= -0.48202630D-01
 T5(CCSD)=  0.21699414D-02
 CCSD(T)= -0.28428155088D+03
 Discarding MO integrals.
 Leave Link  913 at Thu Apr 15 13:38:06 2021, MaxMem= 13421772800 cpu:          212829.9 elap:            3344.4
 (Enter /home/hexuye/G16_1123/data2/software/Gaussian/g16_from_xuruiqin/g16/l601.exe)
 Copying SCF densities to generalized density rwf, IOpCl= 0 IROHF=0.

 **********************************************************************

            Population analysis using the SCF Density.

 **********************************************************************

 Orbital symmetries:
       Occupied  (A') (A') (A') (A') (A') (A') (A') (A') (A') (A')
                 (A') (A") (A') (A") (A') (A') (A") (A") (A') (A')
       Virtual   (A') (A') (A") (A") (A') (A") (A') (A') (A') (A')
                 (A") (A') (A") (A') (A') (A") (A') (A") (A') (A')
                 (A') (A') (A') (A") (A') (A") (A') (A') (A") (A')
                 (A") (A') (A') (A') (A") (A") (A") (A') (A') (A')
                 (A") (A') (A") (A') (A") (A') (A") (A') (A") (A')
                 (A') (A') (A") (A') (A') (A') (A") (A') (A') (A")
                 (A') (A') (A") (A') (A') (A") (A") (A') (A') (A")
                 (A') (A") (A') (A") (A') (A') (A') (A") (A') (A')
                 (A') (A") (A') (A') (A') (A") (A") (A') (A') (A')
                 (A") (A") (A') (A") (A') (A") (A') (A") (A') (A')
                 (A') (A") (A') (A') (A") (A") (A") (A") (A') (A")
                 (A") (A') (A') (A") (A') (A") (A') (A") (A') (A')
                 (A") (A') (A') (A') (A") (A') (A") (A") (A') (A")
                 (A') (A') (A") (A') (A") (A') (A") (A') (A') (A')
                 (A") (A") (A') (A") (A') (A') (A') (A') (A") (A')
                 (A') (A') (A") (A') (A") (A') (A') (A") (A') (A")
                 (A') (A') (A") (A') (A') (A") (A') (A') (A') (A")
                 (A') (A") (A") (A') (A') (A') (A') (A") (A") (A")
                 (A') (A") (A') (A") (A") (A') (A") (A') (A') (A")
                 (A") (A') (A") (A') (A') (A') (A') (A') (A') (A')
                 (A") (A') (A') (A') (A") (A') (A') (A') (A") (A')
                 (A") (A") (A') (A') (A') (A') (A") (A") (A') (A')
                 (A') (A') (A") (A") (A') (A') (A') (A') (A") (A')
                 (A') (A') (A") (A') (A') (A") (A") (A') (A") (A')
                 (A") (A') (A') (A') (A') (A") (A') (A') (A') (A")
                 (A') (A') (A') (A') (A") (A') (A') (A") (A") (A')
                 (A') (A') (A') (A') (A')
 The electronic state is 1-A'.
 Alpha  occ. eigenvalues --  -20.61421 -20.54599 -15.55421 -11.38242 -11.28783
 Alpha  occ. eigenvalues --   -1.46528  -1.36987  -1.20404  -0.97380  -0.83206
 Alpha  occ. eigenvalues --   -0.73648  -0.70337  -0.66972  -0.62907  -0.60515
 Alpha  occ. eigenvalues --   -0.58761  -0.54548  -0.48527  -0.46692  -0.41434
 Alpha virt. eigenvalues --    0.11599   0.14650   0.15954   0.19008   0.19537
 Alpha virt. eigenvalues --    0.24355   0.31299   0.33134   0.34824   0.40614
 Alpha virt. eigenvalues --    0.45194   0.45612   0.46370   0.50657   0.52888
 Alpha virt. eigenvalues --    0.54267   0.55851   0.58213   0.58820   0.61309
 Alpha virt. eigenvalues --    0.64994   0.67087   0.68349   0.71226   0.71990
 Alpha virt. eigenvalues --    0.72063   0.77299   0.78861   0.81841   0.83474
 Alpha virt. eigenvalues --    0.86850   0.89296   0.90735   0.95078   0.99160
 Alpha virt. eigenvalues --    0.99649   1.03416   1.08406   1.08891   1.13051
 Alpha virt. eigenvalues --    1.17254   1.19461   1.21456   1.25447   1.29777
 Alpha virt. eigenvalues --    1.31044   1.34864   1.35171   1.39084   1.39888
 Alpha virt. eigenvalues --    1.45210   1.47650   1.48848   1.50554   1.52356
 Alpha virt. eigenvalues --    1.56156   1.56419   1.62528   1.72266   1.78067
 Alpha virt. eigenvalues --    1.78978   1.83815   1.84431   1.87465   1.97795
 Alpha virt. eigenvalues --    1.98973   2.01640   2.06248   2.23913   2.25926
 Alpha virt. eigenvalues --    2.27847   2.29676   2.30915   2.34802   2.35792
 Alpha virt. eigenvalues --    2.51379   2.60101   2.61094   2.68749   2.72613
 Alpha virt. eigenvalues --    2.76819   2.76960   2.87258   2.90182   2.93732
 Alpha virt. eigenvalues --    2.94897   3.02907   3.03606   3.08103   3.14426
 Alpha virt. eigenvalues --    3.16553   3.18367   3.21882   3.28106   3.29468
 Alpha virt. eigenvalues --    3.33293   3.33309   3.36495   3.39382   3.40388
 Alpha virt. eigenvalues --    3.45706   3.47301   3.52256   3.52861   3.55440
 Alpha virt. eigenvalues --    3.55913   3.61930   3.62793   3.69492   3.71356
 Alpha virt. eigenvalues --    3.72487   3.73503   3.75919   3.79730   3.79814
 Alpha virt. eigenvalues --    3.83927   3.90574   3.90866   3.93829   3.95657
 Alpha virt. eigenvalues --    3.96089   4.00913   4.02104   4.07070   4.09648
 Alpha virt. eigenvalues --    4.12745   4.19396   4.21333   4.23717   4.23832
 Alpha virt. eigenvalues --    4.29015   4.32142   4.33611   4.34989   4.41893
 Alpha virt. eigenvalues --    4.42119   4.43620   4.46973   4.56623   4.59203
 Alpha virt. eigenvalues --    4.60350   4.62858   4.64427   4.68560   4.68702
 Alpha virt. eigenvalues --    4.80226   4.87207   4.99508   5.02076   5.02928
 Alpha virt. eigenvalues --    5.08597   5.14838   5.16863   5.19638   5.29825
 Alpha virt. eigenvalues --    5.33032   5.39604   5.48299   5.48563   5.50328
 Alpha virt. eigenvalues --    5.56608   5.62307   5.63223   5.66650   5.71455
 Alpha virt. eigenvalues --    5.77218   5.78984   5.87954   5.97813   6.04446
 Alpha virt. eigenvalues --    6.05130   6.07307   6.11662   6.12590   6.17356
 Alpha virt. eigenvalues --    6.24194   6.28957   6.33665   6.46594   6.50672
 Alpha virt. eigenvalues --    6.61376   6.73606   6.79899   6.85306   6.96606
 Alpha virt. eigenvalues --    6.97964   7.07157   7.12889   7.20913   7.22624
 Alpha virt. eigenvalues --    7.25762   7.27182   7.35689   7.36673   7.49174
 Alpha virt. eigenvalues --    7.51452   7.58181   7.80375   7.89719   8.34309
 Alpha virt. eigenvalues --   10.45682  11.30075  11.34255  11.48466  11.56232
 Alpha virt. eigenvalues --   11.93310  13.21749  13.44487  14.76035  14.85189
 Alpha virt. eigenvalues --   14.97363  15.04941  15.05255  15.06844  15.41368
 Alpha virt. eigenvalues --   15.60320  15.64705  15.69018  15.87958  16.02278
 Alpha virt. eigenvalues --   16.26068  17.83271  19.04236  19.15976  19.38390
 Alpha virt. eigenvalues --   19.60030  20.19473  20.29663  21.96510  21.96579
 Alpha virt. eigenvalues --   22.04639  22.36093  22.59240  22.85565  23.20937
 Alpha virt. eigenvalues --   30.05455  30.08094  30.10708  30.17589  30.21304
 Alpha virt. eigenvalues --   30.23602  30.30300  30.37594  30.55402  30.56718
 Alpha virt. eigenvalues --   50.34448  50.89792  51.02511  51.10715  51.17519
 Alpha virt. eigenvalues --   51.33186  62.71747  63.23842  70.37275  70.77172
 Alpha virt. eigenvalues --   71.05296  83.55692  90.42000  90.52159  90.68067
 Alpha virt. eigenvalues --   90.85171  91.31221  91.43554 107.97275 108.36926
          Condensed to atoms (all electrons):
               1          2          3          4          5          6
     1  C    4.214153   0.388257   0.751537  -0.037825   0.356756  -0.072853
     2  O    0.388257   7.759629  -0.078919   0.331404  -0.096097   0.006545
     3  O    0.751537  -0.078919   7.835597   0.005161  -0.096792   0.001232
     4  H   -0.037825   0.331404   0.005161   0.479764   0.002070   0.000271
     5  C    0.356756  -0.096097  -0.096792   0.002070   4.824872   0.347992
     6  N   -0.072853   0.006545   0.001232   0.000271   0.347992   6.245535
     7  H   -0.040458   0.004965   0.001301  -0.000180   0.403327  -0.021904
     8  H   -0.040458   0.004965   0.001301  -0.000180   0.403327  -0.021904
     9  H   -0.003322   0.000314   0.005625  -0.000041  -0.047091   0.405821
    10  H   -0.003322   0.000314   0.005625  -0.000041  -0.047091   0.405821
               7          8          9         10
     1  C   -0.040458  -0.040458  -0.003322  -0.003322
     2  O    0.004965   0.004965   0.000314   0.000314
     3  O    0.001301   0.001301   0.005625   0.005625
     4  H   -0.000180  -0.000180  -0.000041  -0.000041
     5  C    0.403327   0.403327  -0.047091  -0.047091
     6  N   -0.021904  -0.021904   0.405821   0.405821
     7  H    0.603452  -0.029160  -0.007611   0.008488
     8  H   -0.029160   0.603452   0.008488  -0.007611
     9  H   -0.007611   0.008488   0.552984  -0.034253
    10  H    0.008488  -0.007611  -0.034253   0.552984
 Mulliken charges:
               1
     1  C    0.487537
     2  O   -0.321377
     3  O   -0.431667
     4  H    0.219596
     5  C   -0.051272
     6  N   -0.296555
     7  H    0.077781
     8  H    0.077781
     9  H    0.119087
    10  H    0.119087
 Sum of Mulliken charges =  -0.00000
 Mulliken charges with hydrogens summed into heavy atoms:
               1
     1  C    0.487537
     2  O   -0.101782
     3  O   -0.431667
     5  C    0.104291
     6  N   -0.058380
 Electronic spatial extent (au):  <R**2>=            419.4198
 Charge=              0.0000 electrons
 Dipole moment (field-independent basis, Debye):
    X=              3.0033    Y=             -1.5962    Z=              0.0000  Tot=              3.4011
 Quadrupole moment (field-independent basis, Debye-Ang):
   XX=            -26.3742   YY=            -38.5257   ZZ=            -27.0476
   XY=              3.9867   XZ=             -0.0000   YZ=             -0.0000
 Traceless Quadrupole moment (field-independent basis, Debye-Ang):
   XX=              4.2750   YY=             -7.8765   ZZ=              3.6015
   XY=              3.9867   XZ=             -0.0000   YZ=             -0.0000
 Octapole moment (field-independent basis, Debye-Ang**2):
  XXX=             12.0738  YYY=             13.7857  ZZZ=              0.0000  XYY=             -2.1447
  XXY=             -1.5371  XXZ=             -0.0000  XZZ=             -1.3810  YZZ=             -1.7644
  YYZ=              0.0000  XYZ=              0.0000
 Hexadecapole moment (field-independent basis, Debye-Ang**3):
 XXXX=           -125.5152 YYYY=           -382.9592 ZZZZ=            -33.5450 XXXY=             -1.7595
 XXXZ=             -0.0000 YYYX=            -19.4948 YYYZ=             -0.0000 ZZZX=              0.0000
 ZZZY=             -0.0000 XXYY=            -69.9866 XXZZ=            -27.2099 YYZZ=            -54.1163
 XXYZ=             -0.0000 YYXZ=             -0.0000 ZZXY=             -4.7867
 N-N= 1.796626220275D+02 E-N=-1.025719011134D+03  KE= 2.826590481389D+02
 Symmetry A'   KE= 2.698573777994D+02
 Symmetry A"   KE= 1.280167033954D+01
 Leave Link  601 at Thu Apr 15 13:38:10 2021, MaxMem= 13421772800 cpu:              18.8 elap:               3.5
 (Enter /home/hexuye/G16_1123/data2/software/Gaussian/g16_from_xuruiqin/g16/l9999.exe)
 Unable to Open any file for archive entry.
 1\1\GINC-CU38\SP\RCCSD(T)-Full\Gen\C2H5N1O2\ROOT\15-Apr-2021\0\\#p CCS
 D(T)=FULL/gen\\start best geom PCCP paper\\0,1\C\O,1,1.35431\O,1,1.196
 08,2,120.26189\H,2,0.961906,1,110.63119,3,180.,0\C,1,1.52269,3,124.625
 53,2,180.,0\N,5,1.44073,1,115.35662,3,0.,0\H,5,1.09261,1,107.80356,3,-
 122.62433,0\H,5,1.09261,1,107.80356,3,122.62433,0\H,6,1.01113,5,110.22
 995,1,-58.35404,0\H,6,1.01113,5,110.22995,1,58.35404,0\\Version=ES64L-
 G16RevC.01\State=1-A'\HF=-282.9404841\MP2=-284.2110917\MP3=-284.229173
 7\MP4D=-284.2504628\MP4DQ=-284.226014\MP4SDQ=-284.2387396\CCSD=-284.23
 55182\CCSD(T)=-284.2815509\RMSD=6.429e-09\PG=CS [SG(C2H1N1O2),X(H4)]\\
 @
 The archive entry for this job was punched.


 OUR LITTLE SYSTEMS HAVE THEIR DAY,    
   THEY HAVE THEIR DAY AND CEASE TO BE.
   THEY ARE BUT BROKEN LIGHTS OF THEE, 
 AND THOU, OH LORD, ART MORE THAN THEY.
          -------------------          
 LET KNOWLEDGE GROW FROM MORE TO MORE, 
   BUT MORE OF REVERENCE IN US DWELL.  
   THAT MIND AND SOUL, ACCORDING WELL, 
 MAY MAKE ONE MUSIC AS BEFORE.....     
          -------------------          
                    LORD TENNYSON      
 Job cpu time:       2 days 12 hours  7 minutes  7.3 seconds.
 Elapsed time:       0 days  0 hours 56 minutes 53.9 seconds.
 File lengths (MBytes):  RWF=  10298 Int=      0 D2E=      0 Chk=      7 Scr=      2
 Normal termination of Gaussian 16 at Thu Apr 15 13:38:12 2021.
