 Entering Gaussian System, Link 0=g16
 Input=ttt_Best_geom_CCSDT_cc-pwCVTZ-ae.gjf
 Output=ttt_Best_geom_CCSDT_cc-pwCVTZ-ae.log
 AtFile(1): /home/hexuye/glycine/cc-pwcvtz.0.gbs
            H     0
            S    5   1.00
                  3.387000D+01           6.068000D-03
                  5.095000D+00           4.530800D-02
                  1.159000D+00           2.028220D-01
                  3.258000D-01           5.039030D-01
                  1.027000D-01           3.834210D-01
            S    1   1.00
                  3.258000D-01           1.000000D+00
            S    1   1.00
                  1.027000D-01           1.000000D+00
            P    1   1.00
                  1.407000D+00           1.000000D+00
            P    1   1.00
                  3.880000D-01           1.000000D+00
            D    1   1.00
                  1.057000D+00           1.0000000
            ****
            C     0
            S    10   1.00
               8236.0000000              0.0005310
               1235.0000000              0.0041080
                280.8000000              0.0210870
                 79.2700000              0.0818530
                 25.5900000              0.2348170
                  8.9970000              0.4344010
                  3.3190000              0.3461290
                  0.9059000              0.0393780
                  0.3643000             -0.0089830
                  0.1285000              0.0023850
            S    10   1.00
               8236.0000000             -0.0001130
               1235.0000000             -0.0008780
                280.8000000             -0.0045400
                 79.2700000             -0.0181330
                 25.5900000             -0.0557600
                  8.9970000             -0.1268950
                  3.3190000             -0.1703520
                  0.9059000              0.1403820
                  0.3643000              0.5986840
                  0.1285000              0.3953890
            S    1   1.00
                  8.828000               1.000000
            S    1   1.00
                  3.474000               1.000000
            S    1   1.00
                  0.9059000              1.0000000
            S    1   1.00
                  0.1285000              1.0000000
            P    5   1.00
                 18.7100000              0.0140310
                  4.1330000              0.0868660
                  1.2000000              0.2902160
                  0.3827000              0.5010080
                  0.1209000              0.3434060
            P    1   1.00
                 21.55200                1.000000
            P    1   1.00
                  5.442000               1.000000
            P    1   1.00
                  0.3827000              1.0000000
            P    1   1.00
                  0.1209000              1.0000000
            D    1   1.00
                  4.950000               1.000000
            D    1   1.00
                  1.0970000              1.0000000
            D    1   1.00
                  0.3180000              1.0000000
            F    1   1.00
                  0.7610000              1.0000000
            ****
            N     0
            S    10   1.00
              11420.0000000              0.0005230
               1712.0000000              0.0040450
                389.3000000              0.0207750
                110.0000000              0.0807270
                 35.5700000              0.2330740
                 12.5400000              0.4335010
                  4.6440000              0.3474720
                  1.2930000              0.0412620
                  0.5118000             -0.0085080
                  0.1787000              0.0023840
            S    10   1.00
              11420.0000000             -0.0001150
               1712.0000000             -0.0008950
                389.3000000             -0.0046240
                110.0000000             -0.0185280
                 35.5700000             -0.0573390
                 12.5400000             -0.1320760
                  4.6440000             -0.1725100
                  1.2930000              0.1518140
                  0.5118000              0.5999440
                  0.1787000              0.3874620
            S    1   1.00
                 11.80700                1.000000
            S    1   1.00
                  4.733000               1.000000
            S    1   1.00
                  1.2930000              1.0000000
            S    1   1.00
                  0.1787000              1.0000000
            P    5   1.00
                 26.6300000              0.0146700
                  5.9480000              0.0917640
                  1.7420000              0.2986830
                  0.5550000              0.4984870
                  0.1725000              0.3370230
            P    1   1.00
                 29.81800                1.000000
            P    1   1.00
                  7.743000               1.000000
            P    1   1.00
                  0.5550000              1.0000000
            P    1   1.00
                  0.1725000              1.0000000
            D    1   1.00
                  7.352000               1.000000
            D    1   1.00
                  1.6540000              1.0000000
            D    1   1.00
                  0.4690000              1.0000000
            F    1   1.00
                  1.0930000              1.0000000
            ****
            O     0
            S    10   1.00
              15330.0000000              0.0005080
               2299.0000000              0.0039290
                522.4000000              0.0202430
                147.3000000              0.0791810
                 47.5500000              0.2306870
                 16.7600000              0.4331180
                  6.2070000              0.3502600
                  1.7520000              0.0427280
                  0.6882000             -0.0081540
                  0.2384000              0.0023810
            S    10   1.00
              15330.0000000             -0.0001150
               2299.0000000             -0.0008950
                522.4000000             -0.0046360
                147.3000000             -0.0187240
                 47.5500000             -0.0584630
                 16.7600000             -0.1364630
                  6.2070000             -0.1757400
                  1.7520000              0.1609340
                  0.6882000              0.6034180
                  0.2384000              0.3787650
            S    1   1.00
                 15.38100                1.000000
            S    1   1.00
                  6.245000               1.000000
            S    1   1.00
                  1.7520000              1.0000000
            S    1   1.00
                  0.2384000              1.0000000
            P    5   1.00
                 34.4600000              0.0159280
                  7.7490000              0.0997400
                  2.2800000              0.3104920
                  0.7156000              0.4910260
                  0.2140000              0.3363370
            P    1   1.00
                 38.48400                1.000000
            P    1   1.00
                 10.21600                1.000000
            P    1   1.00
                  0.7156000              1.0000000
            P    1   1.00
                  0.2140000              1.0000000
            D    1   1.00
                 10.23800                1.000000
            D    1   1.00
                  2.3140000              1.0000000
            D    1   1.00
                  0.6450000              1.0000000
            F    1   1.00
                  1.4280000              1.0000000
            ****
 Initial command:
 /home/hexuye/G16_1123/data2/software/Gaussian/g16_from_xuruiqin/g16/l1.exe "/home/hexuye/scratch/Gau-256624.inp" -scrdir="/home/hexuye/scratch/"
 Entering Link 1 = /home/hexuye/G16_1123/data2/software/Gaussian/g16_from_xuruiqin/g16/l1.exe PID=    256625.
  
 Copyright (c) 1988-2019, Gaussian, Inc.  All Rights Reserved.
  
 This is part of the Gaussian(R) 16 program.  It is based on
 the Gaussian(R) 09 system (copyright 2009, Gaussian, Inc.),
 the Gaussian(R) 03 system (copyright 2003, Gaussian, Inc.),
 the Gaussian(R) 98 system (copyright 1998, Gaussian, Inc.),
 the Gaussian(R) 94 system (copyright 1995, Gaussian, Inc.),
 the Gaussian 92(TM) system (copyright 1992, Gaussian, Inc.),
 the Gaussian 90(TM) system (copyright 1990, Gaussian, Inc.),
 the Gaussian 88(TM) system (copyright 1988, Gaussian, Inc.),
 the Gaussian 86(TM) system (copyright 1986, Carnegie Mellon
 University), and the Gaussian 82(TM) system (copyright 1983,
 Carnegie Mellon University). Gaussian is a federally registered
 trademark of Gaussian, Inc.
  
 This software contains proprietary and confidential information,
 including trade secrets, belonging to Gaussian, Inc.
  
 This software is provided under written license and may be
 used, copied, transmitted, or stored only in accord with that
 written license.
  
 The following legend is applicable only to US Government
 contracts under FAR:
  
                    RESTRICTED RIGHTS LEGEND
  
 Use, reproduction and disclosure by the US Government is
 subject to restrictions as set forth in subparagraphs (a)
 and (c) of the Commercial Computer Software - Restricted
 Rights clause in FAR 52.227-19.
  
 Gaussian, Inc.
 340 Quinnipiac St., Bldg. 40, Wallingford CT 06492
  
  
 ---------------------------------------------------------------
 Warning -- This program may not be used in any manner that
 competes with the business of Gaussian, Inc. or will provide
 assistance to any competitor of Gaussian, Inc.  The licensee
 of this program is prohibited from giving any competitor of
 Gaussian, Inc. access to this program.  By using this program,
 the user acknowledges that Gaussian, Inc. is engaged in the
 business of creating and licensing software in the field of
 computational chemistry and represents and warrants to the
 licensee that it is not a competitor of Gaussian, Inc. and that
 it will not use this program in any manner prohibited above.
 ---------------------------------------------------------------
  

 Cite this work as:
 Gaussian 16, Revision C.01,
 M. J. Frisch, G. W. Trucks, H. B. Schlegel, G. E. Scuseria, 
 M. A. Robb, J. R. Cheeseman, G. Scalmani, V. Barone, 
 G. A. Petersson, H. Nakatsuji, X. Li, M. Caricato, A. V. Marenich, 
 J. Bloino, B. G. Janesko, R. Gomperts, B. Mennucci, H. P. Hratchian, 
 J. V. Ortiz, A. F. Izmaylov, J. L. Sonnenberg, D. Williams-Young, 
 F. Ding, F. Lipparini, F. Egidi, J. Goings, B. Peng, A. Petrone, 
 T. Henderson, D. Ranasinghe, V. G. Zakrzewski, J. Gao, N. Rega, 
 G. Zheng, W. Liang, M. Hada, M. Ehara, K. Toyota, R. Fukuda, 
 J. Hasegawa, M. Ishida, T. Nakajima, Y. Honda, O. Kitao, H. Nakai, 
 T. Vreven, K. Throssell, J. A. Montgomery, Jr., J. E. Peralta, 
 F. Ogliaro, M. J. Bearpark, J. J. Heyd, E. N. Brothers, K. N. Kudin, 
 V. N. Staroverov, T. A. Keith, R. Kobayashi, J. Normand, 
 K. Raghavachari, A. P. Rendell, J. C. Burant, S. S. Iyengar, 
 J. Tomasi, M. Cossi, J. M. Millam, M. Klene, C. Adamo, R. Cammi, 
 J. W. Ochterski, R. L. Martin, K. Morokuma, O. Farkas, 
 J. B. Foresman, and D. J. Fox, Gaussian, Inc., Wallingford CT, 2019.
 
 ******************************************
 Gaussian 16:  ES64L-G16RevC.01  3-Jul-2019
                15-Apr-2021 
 ******************************************
 %chk=ttt_Best_geom_CCSDT_cc-pwCVTZ-ae.chk
 %nprocshared=64
 Will use up to   64 processors via shared memory.
 %mem=100GB
 -------------------
 #p CCSD(T)=FULL/gen
 -------------------
 1/38=1,172=1/1;
 2/12=2,17=6,18=5,40=1/2;
 3/5=7,11=9,25=1,30=1/1,2,3;
 4//1;
 5/5=2,38=5/2;
 8/6=4,9=120000,10=90/1,4;
 9/5=7,14=2/13;
 6/7=2,8=2,9=2,10=2/1;
 99/5=1,9=1/99;
 Leave Link    1 at Thu Apr 15 11:18:05 2021, MaxMem= 13421772800 cpu:               4.4 elap:               0.1
 (Enter /home/hexuye/G16_1123/data2/software/Gaussian/g16_from_xuruiqin/g16/l101.exe)
 --------------------------
 start best geom PCCP paper
 --------------------------
 Symbolic Z-matrix:
 Charge =  0 Multiplicity = 1
 C
 O                    1    B1
 O                    1    B2       2    A1
 H                    2    B3       1    A2       3    D1       0
 C                    1    B4       3    A3       2    D2       0
 N                    5    B5       1    A4       3    D3       0
 H                    5    B6       1    A5       3    D4       0
 H                    5    B7       1    A6       3    D5       0
 H                    6    B8       5    A7       1    D6       0
 H                    6    B9       5    A8       1    D7       0
       Variables:
  B1                    1.3486                   
  B2                    1.2025                   
  B3                    0.9651                   
  B4                    1.5141                   
  B5                    1.442                    
  B6                    1.0905                   
  B7                    1.0905                   
  B8                    1.0109                   
  B9                    1.0109                   
  A1                  123.0718                   
  A2                  107.1011                   
  A3                  125.77                     
  A4                  115.3802                   
  A5                  107.3709                   
  A6                  107.3709                   
  A7                  110.5508                   
  A8                  110.5508                   
  D1                    0.                       
  D2                  180.                       
  D3                    0.                       
  D4                 -123.1312                   
  D5                  123.1312                   
  D6                  -58.6741                   
  D7                   58.6741                   
 
 ITRead=  0  0  0  0  0  0  0  0  0  0
 MicOpt= -1 -1 -1 -1 -1 -1 -1 -1 -1 -1
 NAtoms=     10 NQM=       10 NQMF=       0 NMMI=      0 NMMIF=      0
                NMic=       0 NMicF=      0.
                    Isotopes and Nuclear Properties:
 (Nuclear quadrupole moments (NQMom) in fm**2, nuclear magnetic moments (NMagM)
  in nuclear magnetons)

  Atom         1           2           3           4           5           6           7           8           9          10
 IAtWgt=          12          16          16           1          12          14           1           1           1           1
 AtmWgt=  12.0000000  15.9949146  15.9949146   1.0078250  12.0000000  14.0030740   1.0078250   1.0078250   1.0078250   1.0078250
 NucSpn=           0           0           0           1           0           2           1           1           1           1
 AtZEff=  -0.0000000  -0.0000000  -0.0000000  -0.0000000  -0.0000000  -0.0000000  -0.0000000  -0.0000000  -0.0000000  -0.0000000
 NQMom=    0.0000000   0.0000000   0.0000000   0.0000000   0.0000000   2.0440000   0.0000000   0.0000000   0.0000000   0.0000000
 NMagM=    0.0000000   0.0000000   0.0000000   2.7928460   0.0000000   0.4037610   2.7928460   2.7928460   2.7928460   2.7928460
 AtZNuc=   6.0000000   8.0000000   8.0000000   1.0000000   6.0000000   7.0000000   1.0000000   1.0000000   1.0000000   1.0000000
 Leave Link  101 at Thu Apr 15 11:18:05 2021, MaxMem= 13421772800 cpu:               7.8 elap:               0.2
 (Enter /home/hexuye/G16_1123/data2/software/Gaussian/g16_from_xuruiqin/g16/l202.exe)
                          Input orientation:                          
 ---------------------------------------------------------------------
 Center     Atomic      Atomic             Coordinates (Angstroms)
 Number     Number       Type             X           Y           Z
 ---------------------------------------------------------------------
      1          6           0        0.000000    0.000000    0.000000
      2          8           0        0.000000    0.000000    1.348600
      3          8           0        1.007680    0.000000   -0.656192
      4          1           0        0.922430    0.000000    1.632396
      5          6           0       -1.412031    0.000000   -0.546506
      6          7           0       -1.518192    0.000000   -1.984593
      7          1           0       -1.920977    0.871558   -0.133529
      8          1           0       -1.920977   -0.871558   -0.133529
      9          1           0       -1.053528    0.808581   -2.374724
     10          1           0       -1.053528   -0.808581   -2.374724
 ---------------------------------------------------------------------
                    Distance matrix (angstroms):
                    1          2          3          4          5
     1  C    0.000000
     2  O    1.348600   0.000000
     3  O    1.202500   2.243793   0.000000
     4  H    1.874992   0.965100   2.290175   0.000000
     5  C    1.514100   2.363315   2.422195   3.193324   0.000000
     6  N    2.498703   3.662660   2.853888   4.363398   1.442000
     7  H    2.113669   2.578075   3.099971   3.458767   1.090500
     8  H    2.113669   2.578075   3.099971   3.458767   1.090500
     9  H    2.720853   3.953083   2.802808   4.540399   2.030938
    10  H    2.720853   3.953083   2.802808   4.540399   2.030938
                    6          7          8          9         10
     6  N    0.000000
     7  H    2.085254   0.000000
     8  H    2.085254   1.743117   0.000000
     9  H    1.010900   2.404037   2.932285   0.000000
    10  H    1.010900   2.932285   2.404037   1.617161   0.000000
 Stoichiometry    C2H5NO2
 Framework group  CS[SG(C2HNO2),X(H4)]
 Deg. of freedom    15
 Full point group                 CS      NOp   2
 Largest Abelian subgroup         CS      NOp   2
 Largest concise Abelian subgroup CS      NOp   2
                         Standard orientation:                         
 ---------------------------------------------------------------------
 Center     Atomic      Atomic             Coordinates (Angstroms)
 Number     Number       Type             X           Y           Z
 ---------------------------------------------------------------------
      1          6           0       -0.000000    0.549747   -0.000000
      2          8           0        0.985218    1.470653   -0.000000
      3          8           0       -1.167485    0.837818    0.000000
      4          1           0        0.562653    2.338326   -0.000000
      5          6           0        0.564972   -0.854997   -0.000000
      6          7           0       -0.413127   -1.914567    0.000000
      7          1           0        1.214211   -0.944801    0.871558
      8          1           0        1.214211   -0.944801   -0.871558
      9          1           0       -1.015438   -1.841513    0.808581
     10          1           0       -1.015438   -1.841513   -0.808581
 ---------------------------------------------------------------------
 Rotational constants (GHZ):          10.3961958           3.9010533           2.9303554
 Leave Link  202 at Thu Apr 15 11:18:05 2021, MaxMem= 13421772800 cpu:               9.9 elap:               0.2
 (Enter /home/hexuye/G16_1123/data2/software/Gaussian/g16_from_xuruiqin/g16/l301.exe)
 General basis read from cards:  (5D, 7F)
 Centers:       4      7      8      9     10
 S 5 1.00
     Exponent=  3.3870000000D+01 Coefficients=  6.0680000000D-03
     Exponent=  5.0950000000D+00 Coefficients=  4.5308000000D-02
     Exponent=  1.1590000000D+00 Coefficients=  2.0282200000D-01
     Exponent=  3.2580000000D-01 Coefficients=  5.0390300000D-01
     Exponent=  1.0270000000D-01 Coefficients=  3.8342100000D-01
 S 1 1.00
     Exponent=  3.2580000000D-01 Coefficients=  1.0000000000D+00
 S 1 1.00
     Exponent=  1.0270000000D-01 Coefficients=  1.0000000000D+00
 P 1 1.00
     Exponent=  1.4070000000D+00 Coefficients=  1.0000000000D+00
 P 1 1.00
     Exponent=  3.8800000000D-01 Coefficients=  1.0000000000D+00
 D 1 1.00
     Exponent=  1.0570000000D+00 Coefficients=  1.0000000000D+00
 ****
 Centers:       1      5
 S 10 1.00
     Exponent=  8.2360000000D+03 Coefficients=  5.3100000000D-04
     Exponent=  1.2350000000D+03 Coefficients=  4.1080000000D-03
     Exponent=  2.8080000000D+02 Coefficients=  2.1087000000D-02
     Exponent=  7.9270000000D+01 Coefficients=  8.1853000000D-02
     Exponent=  2.5590000000D+01 Coefficients=  2.3481700000D-01
     Exponent=  8.9970000000D+00 Coefficients=  4.3440100000D-01
     Exponent=  3.3190000000D+00 Coefficients=  3.4612900000D-01
     Exponent=  9.0590000000D-01 Coefficients=  3.9378000000D-02
     Exponent=  3.6430000000D-01 Coefficients= -8.9830000000D-03
     Exponent=  1.2850000000D-01 Coefficients=  2.3850000000D-03
 S 10 1.00
     Exponent=  8.2360000000D+03 Coefficients= -1.1300000000D-04
     Exponent=  1.2350000000D+03 Coefficients= -8.7800000000D-04
     Exponent=  2.8080000000D+02 Coefficients= -4.5400000000D-03
     Exponent=  7.9270000000D+01 Coefficients= -1.8133000000D-02
     Exponent=  2.5590000000D+01 Coefficients= -5.5760000000D-02
     Exponent=  8.9970000000D+00 Coefficients= -1.2689500000D-01
     Exponent=  3.3190000000D+00 Coefficients= -1.7035200000D-01
     Exponent=  9.0590000000D-01 Coefficients=  1.4038200000D-01
     Exponent=  3.6430000000D-01 Coefficients=  5.9868400000D-01
     Exponent=  1.2850000000D-01 Coefficients=  3.9538900000D-01
 S 1 1.00
     Exponent=  8.8280000000D+00 Coefficients=  1.0000000000D+00
 S 1 1.00
     Exponent=  3.4740000000D+00 Coefficients=  1.0000000000D+00
 S 1 1.00
     Exponent=  9.0590000000D-01 Coefficients=  1.0000000000D+00
 S 1 1.00
     Exponent=  1.2850000000D-01 Coefficients=  1.0000000000D+00
 P 5 1.00
     Exponent=  1.8710000000D+01 Coefficients=  1.4031000000D-02
     Exponent=  4.1330000000D+00 Coefficients=  8.6866000000D-02
     Exponent=  1.2000000000D+00 Coefficients=  2.9021600000D-01
     Exponent=  3.8270000000D-01 Coefficients=  5.0100800000D-01
     Exponent=  1.2090000000D-01 Coefficients=  3.4340600000D-01
 P 1 1.00
     Exponent=  2.1552000000D+01 Coefficients=  1.0000000000D+00
 P 1 1.00
     Exponent=  5.4420000000D+00 Coefficients=  1.0000000000D+00
 P 1 1.00
     Exponent=  3.8270000000D-01 Coefficients=  1.0000000000D+00
 P 1 1.00
     Exponent=  1.2090000000D-01 Coefficients=  1.0000000000D+00
 D 1 1.00
     Exponent=  4.9500000000D+00 Coefficients=  1.0000000000D+00
 D 1 1.00
     Exponent=  1.0970000000D+00 Coefficients=  1.0000000000D+00
 D 1 1.00
     Exponent=  3.1800000000D-01 Coefficients=  1.0000000000D+00
 F 1 1.00
     Exponent=  7.6100000000D-01 Coefficients=  1.0000000000D+00
 ****
 Centers:       6
 S 10 1.00
     Exponent=  1.1420000000D+04 Coefficients=  5.2300000000D-04
     Exponent=  1.7120000000D+03 Coefficients=  4.0450000000D-03
     Exponent=  3.8930000000D+02 Coefficients=  2.0775000000D-02
     Exponent=  1.1000000000D+02 Coefficients=  8.0727000000D-02
     Exponent=  3.5570000000D+01 Coefficients=  2.3307400000D-01
     Exponent=  1.2540000000D+01 Coefficients=  4.3350100000D-01
     Exponent=  4.6440000000D+00 Coefficients=  3.4747200000D-01
     Exponent=  1.2930000000D+00 Coefficients=  4.1262000000D-02
     Exponent=  5.1180000000D-01 Coefficients= -8.5080000000D-03
     Exponent=  1.7870000000D-01 Coefficients=  2.3840000000D-03
 S 10 1.00
     Exponent=  1.1420000000D+04 Coefficients= -1.1500000000D-04
     Exponent=  1.7120000000D+03 Coefficients= -8.9500000000D-04
     Exponent=  3.8930000000D+02 Coefficients= -4.6240000000D-03
     Exponent=  1.1000000000D+02 Coefficients= -1.8528000000D-02
     Exponent=  3.5570000000D+01 Coefficients= -5.7339000000D-02
     Exponent=  1.2540000000D+01 Coefficients= -1.3207600000D-01
     Exponent=  4.6440000000D+00 Coefficients= -1.7251000000D-01
     Exponent=  1.2930000000D+00 Coefficients=  1.5181400000D-01
     Exponent=  5.1180000000D-01 Coefficients=  5.9994400000D-01
     Exponent=  1.7870000000D-01 Coefficients=  3.8746200000D-01
 S 1 1.00
     Exponent=  1.1807000000D+01 Coefficients=  1.0000000000D+00
 S 1 1.00
     Exponent=  4.7330000000D+00 Coefficients=  1.0000000000D+00
 S 1 1.00
     Exponent=  1.2930000000D+00 Coefficients=  1.0000000000D+00
 S 1 1.00
     Exponent=  1.7870000000D-01 Coefficients=  1.0000000000D+00
 P 5 1.00
     Exponent=  2.6630000000D+01 Coefficients=  1.4670000000D-02
     Exponent=  5.9480000000D+00 Coefficients=  9.1764000000D-02
     Exponent=  1.7420000000D+00 Coefficients=  2.9868300000D-01
     Exponent=  5.5500000000D-01 Coefficients=  4.9848700000D-01
     Exponent=  1.7250000000D-01 Coefficients=  3.3702300000D-01
 P 1 1.00
     Exponent=  2.9818000000D+01 Coefficients=  1.0000000000D+00
 P 1 1.00
     Exponent=  7.7430000000D+00 Coefficients=  1.0000000000D+00
 P 1 1.00
     Exponent=  5.5500000000D-01 Coefficients=  1.0000000000D+00
 P 1 1.00
     Exponent=  1.7250000000D-01 Coefficients=  1.0000000000D+00
 D 1 1.00
     Exponent=  7.3520000000D+00 Coefficients=  1.0000000000D+00
 D 1 1.00
     Exponent=  1.6540000000D+00 Coefficients=  1.0000000000D+00
 D 1 1.00
     Exponent=  4.6900000000D-01 Coefficients=  1.0000000000D+00
 F 1 1.00
     Exponent=  1.0930000000D+00 Coefficients=  1.0000000000D+00
 ****
 Centers:       2      3
 S 10 1.00
     Exponent=  1.5330000000D+04 Coefficients=  5.0800000000D-04
     Exponent=  2.2990000000D+03 Coefficients=  3.9290000000D-03
     Exponent=  5.2240000000D+02 Coefficients=  2.0243000000D-02
     Exponent=  1.4730000000D+02 Coefficients=  7.9181000000D-02
     Exponent=  4.7550000000D+01 Coefficients=  2.3068700000D-01
     Exponent=  1.6760000000D+01 Coefficients=  4.3311800000D-01
     Exponent=  6.2070000000D+00 Coefficients=  3.5026000000D-01
     Exponent=  1.7520000000D+00 Coefficients=  4.2728000000D-02
     Exponent=  6.8820000000D-01 Coefficients= -8.1540000000D-03
     Exponent=  2.3840000000D-01 Coefficients=  2.3810000000D-03
 S 10 1.00
     Exponent=  1.5330000000D+04 Coefficients= -1.1500000000D-04
     Exponent=  2.2990000000D+03 Coefficients= -8.9500000000D-04
     Exponent=  5.2240000000D+02 Coefficients= -4.6360000000D-03
     Exponent=  1.4730000000D+02 Coefficients= -1.8724000000D-02
     Exponent=  4.7550000000D+01 Coefficients= -5.8463000000D-02
     Exponent=  1.6760000000D+01 Coefficients= -1.3646300000D-01
     Exponent=  6.2070000000D+00 Coefficients= -1.7574000000D-01
     Exponent=  1.7520000000D+00 Coefficients=  1.6093400000D-01
     Exponent=  6.8820000000D-01 Coefficients=  6.0341800000D-01
     Exponent=  2.3840000000D-01 Coefficients=  3.7876500000D-01
 S 1 1.00
     Exponent=  1.5381000000D+01 Coefficients=  1.0000000000D+00
 S 1 1.00
     Exponent=  6.2450000000D+00 Coefficients=  1.0000000000D+00
 S 1 1.00
     Exponent=  1.7520000000D+00 Coefficients=  1.0000000000D+00
 S 1 1.00
     Exponent=  2.3840000000D-01 Coefficients=  1.0000000000D+00
 P 5 1.00
     Exponent=  3.4460000000D+01 Coefficients=  1.5928000000D-02
     Exponent=  7.7490000000D+00 Coefficients=  9.9740000000D-02
     Exponent=  2.2800000000D+00 Coefficients=  3.1049200000D-01
     Exponent=  7.1560000000D-01 Coefficients=  4.9102600000D-01
     Exponent=  2.1400000000D-01 Coefficients=  3.3633700000D-01
 P 1 1.00
     Exponent=  3.8484000000D+01 Coefficients=  1.0000000000D+00
 P 1 1.00
     Exponent=  1.0216000000D+01 Coefficients=  1.0000000000D+00
 P 1 1.00
     Exponent=  7.1560000000D-01 Coefficients=  1.0000000000D+00
 P 1 1.00
     Exponent=  2.1400000000D-01 Coefficients=  1.0000000000D+00
 D 1 1.00
     Exponent=  1.0238000000D+01 Coefficients=  1.0000000000D+00
 D 1 1.00
     Exponent=  2.3140000000D+00 Coefficients=  1.0000000000D+00
 D 1 1.00
     Exponent=  6.4500000000D-01 Coefficients=  1.0000000000D+00
 F 1 1.00
     Exponent=  1.4280000000D+00 Coefficients=  1.0000000000D+00
 ****
 Ernie: Thresh=  0.10000D-02 Tol=  0.10000D-05 Strict=F.
 Ernie:  35 primitive shells out of 235 were deleted.
 There are   211 symmetry adapted cartesian basis functions of A'  symmetry.
 There are   109 symmetry adapted cartesian basis functions of A"  symmetry.
 There are   183 symmetry adapted basis functions of A'  symmetry.
 There are   102 symmetry adapted basis functions of A"  symmetry.
   285 basis functions,   455 primitive gaussians,   320 cartesian basis functions
    20 alpha electrons       20 beta electrons
       nuclear repulsion energy       179.7404042721 Hartrees.
 IExCor=    0 DFT=F Ex=HF Corr=None ExCW=0 ScaHFX=  1.000000
 ScaDFX=  1.000000  1.000000  1.000000  1.000000 ScalE2=  1.000000  1.000000
 IRadAn=      5 IRanWt=     -1 IRanGd=            0 ICorTp=0 IEmpDi=  4
 NAtoms=   10 NActive=   10 NUniq=    8 SFac= 1.56D+00 NAtFMM=   60 NAOKFM=F Big=F
 Integral buffers will be    131072 words long.
 Raffenetti 1 integral format.
 Two-electron integral symmetry is turned on.
 Leave Link  301 at Thu Apr 15 11:18:06 2021, MaxMem= 13421772800 cpu:              15.3 elap:               0.3
 (Enter /home/hexuye/G16_1123/data2/software/Gaussian/g16_from_xuruiqin/g16/l302.exe)
 NPDir=0 NMtPBC=     1 NCelOv=     1 NCel=       1 NClECP=     1 NCelD=      1
         NCelK=      1 NCelE2=     1 NClLst=     1 CellRange=     0.0.
 One-electron integrals computed using PRISM.
 One-electron integral symmetry used in STVInt
 NBasis=   285 RedAO= T EigKep=  4.48D-04  NBF=   183   102
 NBsUse=   285 1.00D-06 EigRej= -1.00D+00 NBFU=   183   102
 Leave Link  302 at Thu Apr 15 11:18:06 2021, MaxMem= 13421772800 cpu:              38.3 elap:               0.7
 (Enter /home/hexuye/G16_1123/data2/software/Gaussian/g16_from_xuruiqin/g16/l303.exe)
 DipDrv:  MaxL=1.
 Leave Link  303 at Thu Apr 15 11:18:06 2021, MaxMem= 13421772800 cpu:               4.3 elap:               0.1
 (Enter /home/hexuye/G16_1123/data2/software/Gaussian/g16_from_xuruiqin/g16/l401.exe)
 ExpMin= 1.03D-01 ExpMax= 1.53D+04 ExpMxC= 5.22D+02 IAcc=3 IRadAn=         5 AccDes= 0.00D+00
 Harris functional with IExCor=  205 and IRadAn=       5 diagonalized for initial guess.
 HarFok:  IExCor=  205 AccDes= 0.00D+00 IRadAn=         5 IDoV= 1 UseB2=F ITyADJ=14
 ICtDFT=  3500011 ScaDFX=  1.000000  1.000000  1.000000  1.000000
 FoFCou: FMM=F IPFlag=           0 FMFlag=      100000 FMFlg1=           0
         NFxFlg=           0 DoJE=T BraDBF=F KetDBF=T FulRan=T
         wScrn=  0.000000 ICntrl=       500 IOpCl=  0 I1Cent=   200000004 NGrid=           0
         NMat0=    1 NMatS0=      1 NMatT0=    0 NMatD0=    1 NMtDS0=    0 NMtDT0=    0
 Petite list used in FoFCou.
 Harris En= -283.232592725235    
 JPrj=0 DoOrth=F DoCkMO=F.
 Initial guess orbital symmetries:
       Occupied  (A') (A') (A') (A') (A') (A') (A') (A') (A') (A')
                 (A") (A') (A') (A') (A") (A') (A") (A") (A') (A')
       Virtual   (A") (A') (A') (A') (A") (A') (A") (A') (A') (A')
                 (A') (A") (A') (A") (A') (A') (A") (A') (A') (A")
                 (A') (A') (A') (A") (A') (A') (A") (A') (A') (A")
                 (A') (A") (A') (A") (A') (A") (A") (A') (A') (A')
                 (A') (A") (A') (A") (A") (A') (A') (A") (A") (A')
                 (A') (A') (A") (A') (A') (A") (A') (A') (A') (A")
                 (A") (A') (A') (A') (A') (A") (A") (A') (A') (A")
                 (A') (A") (A') (A') (A") (A') (A") (A') (A') (A')
                 (A') (A") (A') (A') (A') (A") (A') (A") (A') (A')
                 (A") (A') (A") (A') (A") (A') (A") (A') (A") (A')
                 (A") (A') (A') (A") (A') (A") (A") (A") (A') (A')
                 (A") (A") (A') (A") (A') (A') (A") (A') (A") (A')
                 (A") (A') (A') (A') (A") (A") (A') (A") (A") (A')
                 (A") (A') (A') (A') (A') (A") (A') (A') (A") (A')
                 (A") (A') (A") (A') (A") (A') (A') (A') (A') (A")
                 (A') (A') (A") (A') (A") (A') (A') (A') (A") (A")
                 (A') (A') (A") (A') (A') (A') (A") (A') (A") (A')
                 (A') (A") (A') (A') (A") (A') (A') (A") (A") (A')
                 (A") (A") (A") (A') (A') (A") (A') (A") (A') (A')
                 (A") (A") (A') (A") (A') (A') (A') (A') (A') (A')
                 (A") (A') (A') (A') (A") (A') (A') (A') (A') (A")
                 (A') (A") (A') (A") (A') (A") (A') (A") (A') (A')
                 (A') (A') (A") (A") (A') (A') (A') (A') (A') (A")
                 (A') (A') (A") (A') (A') (A") (A') (A") (A") (A')
                 (A") (A') (A') (A') (A') (A") (A') (A') (A') (A")
                 (A') (A') (A') (A') (A") (A') (A') (A") (A") (A')
                 (A') (A') (A') (A') (A')
 The electronic state of the initial guess is 1-A'.
 Leave Link  401 at Thu Apr 15 11:18:07 2021, MaxMem= 13421772800 cpu:              55.0 elap:               1.0
 (Enter /home/hexuye/G16_1123/data2/software/Gaussian/g16_from_xuruiqin/g16/l502.exe)
 Keep R1 ints in memory in symmetry-blocked form, NReq=1248785029.
 FoFCou: FMM=F IPFlag=           0 FMFlag=           0 FMFlg1=           0
         NFxFlg=           0 DoJE=F BraDBF=F KetDBF=F FulRan=T
         wScrn=  0.000000 ICntrl=       600 IOpCl=  0 I1Cent=           0 NGrid=           0
         NMat0=    1 NMatS0=  40755 NMatT0=    0 NMatD0=    1 NMtDS0=    0 NMtDT0=    0
 Petite list used in FoFCou.
 Closed shell SCF:
 Using DIIS extrapolation, IDIIS=  1040.
 NGot= 13421772800 LenX= 13003266795 LenY= 13003163954
 Requested convergence on RMS density matrix=1.00D-08 within 128 cycles.
 Requested convergence on MAX density matrix=1.00D-06.
 Requested convergence on             energy=1.00D-06.
 No special actions if energy rises.

 Cycle   1  Pass 1  IDiag  1:
 E= -282.706174156723    
 DIIS: error= 5.19D-02 at cycle   1 NSaved=   1.
 NSaved= 1 IEnMin= 1 EnMin= -282.706174156723     IErMin= 1 ErrMin= 5.19D-02
 ErrMax= 5.19D-02  0.00D+00 EMaxC= 1.00D-01 BMatC= 6.77D-01 BMatP= 6.77D-01
 IDIUse=3 WtCom= 4.81D-01 WtEn= 5.19D-01
 Coeff-Com:  0.100D+01
 Coeff-En:   0.100D+01
 Coeff:      0.100D+01
 Gap=     0.485 Goal=   None    Shift=    0.000
 GapD=    0.485 DampG=2.000 DampE=0.500 DampFc=1.0000 IDamp=-1.
 RMSDP=4.08D-03 MaxDP=2.68D-01              OVMax= 1.17D-01

 Cycle   2  Pass 1  IDiag  1:
 E= -282.897020266503     Delta-E=       -0.190846109779 Rises=F Damp=F
 DIIS: error= 1.41D-02 at cycle   2 NSaved=   2.
 NSaved= 2 IEnMin= 2 EnMin= -282.897020266503     IErMin= 2 ErrMin= 1.41D-02
 ErrMax= 1.41D-02  0.00D+00 EMaxC= 1.00D-01 BMatC= 7.96D-02 BMatP= 6.77D-01
 IDIUse=3 WtCom= 8.59D-01 WtEn= 1.41D-01
 Coeff-Com:  0.177D+00 0.823D+00
 Coeff-En:   0.000D+00 0.100D+01
 Coeff:      0.152D+00 0.848D+00
 Gap=     0.583 Goal=   None    Shift=    0.000
 RMSDP=1.55D-03 MaxDP=1.24D-01 DE=-1.91D-01 OVMax= 5.39D-02

 Cycle   3  Pass 1  IDiag  1:
 E= -282.941721293762     Delta-E=       -0.044701027260 Rises=F Damp=F
 DIIS: error= 7.05D-03 at cycle   3 NSaved=   3.
 NSaved= 3 IEnMin= 3 EnMin= -282.941721293762     IErMin= 3 ErrMin= 7.05D-03
 ErrMax= 7.05D-03  0.00D+00 EMaxC= 1.00D-01 BMatC= 1.22D-02 BMatP= 7.96D-02
 IDIUse=3 WtCom= 9.29D-01 WtEn= 7.05D-02
 Coeff-Com: -0.249D-01 0.253D+00 0.772D+00
 Coeff-En:   0.000D+00 0.000D+00 0.100D+01
 Coeff:     -0.232D-01 0.235D+00 0.788D+00
 Gap=     0.550 Goal=   None    Shift=    0.000
 RMSDP=4.34D-04 MaxDP=5.08D-02 DE=-4.47D-02 OVMax= 2.71D-02

 Cycle   4  Pass 1  IDiag  1:
 E= -282.949285774106     Delta-E=       -0.007564480344 Rises=F Damp=F
 DIIS: error= 1.40D-03 at cycle   4 NSaved=   4.
 NSaved= 4 IEnMin= 4 EnMin= -282.949285774106     IErMin= 4 ErrMin= 1.40D-03
 ErrMax= 1.40D-03  0.00D+00 EMaxC= 1.00D-01 BMatC= 4.55D-04 BMatP= 1.22D-02
 IDIUse=3 WtCom= 9.86D-01 WtEn= 1.40D-02
 Coeff-Com: -0.109D-01 0.566D-01 0.255D+00 0.699D+00
 Coeff-En:   0.000D+00 0.000D+00 0.000D+00 0.100D+01
 Coeff:     -0.108D-01 0.558D-01 0.251D+00 0.704D+00
 Gap=     0.546 Goal=   None    Shift=    0.000
 RMSDP=9.91D-05 MaxDP=9.43D-03 DE=-7.56D-03 OVMax= 5.09D-03

 Cycle   5  Pass 1  IDiag  1:
 E= -282.949654276626     Delta-E=       -0.000368502520 Rises=F Damp=F
 DIIS: error= 5.39D-04 at cycle   5 NSaved=   5.
 NSaved= 5 IEnMin= 5 EnMin= -282.949654276626     IErMin= 5 ErrMin= 5.39D-04
 ErrMax= 5.39D-04  0.00D+00 EMaxC= 1.00D-01 BMatC= 2.81D-05 BMatP= 4.55D-04
 IDIUse=3 WtCom= 9.95D-01 WtEn= 5.39D-03
 Coeff-Com:  0.212D-02-0.237D-01-0.746D-01 0.404D-01 0.106D+01
 Coeff-En:   0.000D+00 0.000D+00 0.000D+00 0.000D+00 0.100D+01
 Coeff:      0.210D-02-0.235D-01-0.742D-01 0.402D-01 0.106D+01
 Gap=     0.548 Goal=   None    Shift=    0.000
 RMSDP=4.47D-05 MaxDP=4.25D-03 DE=-3.69D-04 OVMax= 3.71D-03

 Cycle   6  Pass 1  IDiag  1:
 E= -282.949704729107     Delta-E=       -0.000050452481 Rises=F Damp=F
 DIIS: error= 1.26D-04 at cycle   6 NSaved=   6.
 NSaved= 6 IEnMin= 6 EnMin= -282.949704729107     IErMin= 6 ErrMin= 1.26D-04
 ErrMax= 1.26D-04  0.00D+00 EMaxC= 1.00D-01 BMatC= 4.15D-06 BMatP= 2.81D-05
 IDIUse=3 WtCom= 9.99D-01 WtEn= 1.26D-03
 Coeff-Com:  0.148D-02-0.110D-01-0.407D-01-0.718D-01 0.203D+00 0.919D+00
 Coeff-En:   0.000D+00 0.000D+00 0.000D+00 0.000D+00 0.000D+00 0.100D+01
 Coeff:      0.148D-02-0.110D-01-0.407D-01-0.717D-01 0.202D+00 0.920D+00
 Gap=     0.548 Goal=   None    Shift=    0.000
 RMSDP=1.81D-05 MaxDP=1.42D-03 DE=-5.05D-05 OVMax= 1.06D-03

 Cycle   7  Pass 1  IDiag  1:
 E= -282.949712094115     Delta-E=       -0.000007365008 Rises=F Damp=F
 DIIS: error= 6.82D-05 at cycle   7 NSaved=   7.
 NSaved= 7 IEnMin= 7 EnMin= -282.949712094115     IErMin= 7 ErrMin= 6.82D-05
 ErrMax= 6.82D-05  0.00D+00 EMaxC= 1.00D-01 BMatC= 5.08D-07 BMatP= 4.15D-06
 IDIUse=1 WtCom= 1.00D+00 WtEn= 0.00D+00
 Coeff-Com: -0.187D-03 0.243D-02 0.924D-02-0.151D-01-0.119D+00 0.169D-01
 Coeff-Com:  0.111D+01
 Coeff:     -0.187D-03 0.243D-02 0.924D-02-0.151D-01-0.119D+00 0.169D-01
 Coeff:      0.111D+01
 Gap=     0.548 Goal=   None    Shift=    0.000
 RMSDP=7.33D-06 MaxDP=7.16D-04 DE=-7.37D-06 OVMax= 7.26D-04

 Cycle   8  Pass 1  IDiag  1:
 E= -282.949713435670     Delta-E=       -0.000001341555 Rises=F Damp=F
 DIIS: error= 1.91D-05 at cycle   8 NSaved=   8.
 NSaved= 8 IEnMin= 8 EnMin= -282.949713435670     IErMin= 8 ErrMin= 1.91D-05
 ErrMax= 1.91D-05  0.00D+00 EMaxC= 1.00D-01 BMatC= 7.33D-08 BMatP= 5.08D-07
 IDIUse=1 WtCom= 1.00D+00 WtEn= 0.00D+00
 Coeff-Com: -0.171D-03 0.120D-02 0.459D-02 0.620D-02-0.584D-02-0.115D+00
 Coeff-Com: -0.147D+00 0.126D+01
 Coeff:     -0.171D-03 0.120D-02 0.459D-02 0.620D-02-0.584D-02-0.115D+00
 Coeff:     -0.147D+00 0.126D+01
 Gap=     0.548 Goal=   None    Shift=    0.000
 RMSDP=3.07D-06 MaxDP=3.19D-04 DE=-1.34D-06 OVMax= 3.06D-04

 Cycle   9  Pass 1  IDiag  1:
 E= -282.949713643240     Delta-E=       -0.000000207571 Rises=F Damp=F
 DIIS: error= 6.12D-06 at cycle   9 NSaved=   9.
 NSaved= 9 IEnMin= 9 EnMin= -282.949713643240     IErMin= 9 ErrMin= 6.12D-06
 ErrMax= 6.12D-06  0.00D+00 EMaxC= 1.00D-01 BMatC= 9.21D-09 BMatP= 7.33D-08
 IDIUse=1 WtCom= 1.00D+00 WtEn= 0.00D+00
 Coeff-Com: -0.720D-05-0.935D-04-0.334D-03 0.220D-02 0.161D-01-0.215D-01
 Coeff-Com: -0.168D+00 0.207D+00 0.965D+00
 Coeff:     -0.720D-05-0.935D-04-0.334D-03 0.220D-02 0.161D-01-0.215D-01
 Coeff:     -0.168D+00 0.207D+00 0.965D+00
 Gap=     0.548 Goal=   None    Shift=    0.000
 RMSDP=9.72D-07 MaxDP=8.82D-05 DE=-2.08D-07 OVMax= 8.69D-05

 Cycle  10  Pass 1  IDiag  1:
 E= -282.949713662816     Delta-E=       -0.000000019575 Rises=F Damp=F
 DIIS: error= 1.84D-06 at cycle  10 NSaved=  10.
 NSaved=10 IEnMin=10 EnMin= -282.949713662816     IErMin=10 ErrMin= 1.84D-06
 ErrMax= 1.84D-06  0.00D+00 EMaxC= 1.00D-01 BMatC= 8.75D-10 BMatP= 9.21D-09
 IDIUse=1 WtCom= 1.00D+00 WtEn= 0.00D+00
 Coeff-Com:  0.220D-04-0.169D-03-0.612D-03-0.109D-02 0.194D-02 0.139D-01
 Coeff-Com:  0.160D-01-0.161D+00 0.245D-01 0.111D+01
 Coeff:      0.220D-04-0.169D-03-0.612D-03-0.109D-02 0.194D-02 0.139D-01
 Coeff:      0.160D-01-0.161D+00 0.245D-01 0.111D+01
 Gap=     0.548 Goal=   None    Shift=    0.000
 RMSDP=3.24D-07 MaxDP=3.43D-05 DE=-1.96D-08 OVMax= 2.47D-05

 Cycle  11  Pass 1  IDiag  1:
 E= -282.949713664808     Delta-E=       -0.000000001993 Rises=F Damp=F
 DIIS: error= 5.72D-07 at cycle  11 NSaved=  11.
 NSaved=11 IEnMin=11 EnMin= -282.949713664808     IErMin=11 ErrMin= 5.72D-07
 ErrMax= 5.72D-07  0.00D+00 EMaxC= 1.00D-01 BMatC= 6.05D-11 BMatP= 8.75D-10
 IDIUse=1 WtCom= 1.00D+00 WtEn= 0.00D+00
 Coeff-Com:  0.473D-06 0.461D-05 0.390D-04-0.172D-03-0.910D-03 0.640D-03
 Coeff-Com:  0.107D-01-0.527D-02-0.781D-01-0.648D-01 0.114D+01
 Coeff:      0.473D-06 0.461D-05 0.390D-04-0.172D-03-0.910D-03 0.640D-03
 Coeff:      0.107D-01-0.527D-02-0.781D-01-0.648D-01 0.114D+01
 Gap=     0.548 Goal=   None    Shift=    0.000
 RMSDP=8.91D-08 MaxDP=7.06D-06 DE=-1.99D-09 OVMax= 4.57D-06

 Cycle  12  Pass 1  IDiag  1:
 E= -282.949713664932     Delta-E=       -0.000000000124 Rises=F Damp=F
 DIIS: error= 1.42D-07 at cycle  12 NSaved=  12.
 NSaved=12 IEnMin=12 EnMin= -282.949713664932     IErMin=12 ErrMin= 1.42D-07
 ErrMax= 1.42D-07  0.00D+00 EMaxC= 1.00D-01 BMatC= 3.70D-12 BMatP= 6.05D-11
 IDIUse=1 WtCom= 1.00D+00 WtEn= 0.00D+00
 Coeff-Com: -0.149D-05 0.117D-04 0.458D-04 0.611D-04-0.141D-03-0.987D-03
 Coeff-Com: -0.129D-02 0.131D-01-0.499D-02-0.839D-01 0.456D-01 0.103D+01
 Coeff:     -0.149D-05 0.117D-04 0.458D-04 0.611D-04-0.141D-03-0.987D-03
 Coeff:     -0.129D-02 0.131D-01-0.499D-02-0.839D-01 0.456D-01 0.103D+01
 Gap=     0.548 Goal=   None    Shift=    0.000
 RMSDP=1.93D-08 MaxDP=1.31D-06 DE=-1.24D-10 OVMax= 9.82D-07

 Cycle  13  Pass 1  IDiag  1:
 E= -282.949713664941     Delta-E=       -0.000000000008 Rises=F Damp=F
 DIIS: error= 5.48D-08 at cycle  13 NSaved=  13.
 NSaved=13 IEnMin=13 EnMin= -282.949713664941     IErMin=13 ErrMin= 5.48D-08
 ErrMax= 5.48D-08  0.00D+00 EMaxC= 1.00D-01 BMatC= 3.34D-13 BMatP= 3.70D-12
 IDIUse=1 WtCom= 1.00D+00 WtEn= 0.00D+00
 Coeff-Com:  0.847D-07-0.134D-05-0.682D-05 0.915D-05 0.105D-03 0.261D-04
 Coeff-Com: -0.110D-02 0.950D-04 0.730D-02 0.879D-02-0.107D+00-0.244D-01
 Coeff-Com:  0.112D+01
 Coeff:      0.847D-07-0.134D-05-0.682D-05 0.915D-05 0.105D-03 0.261D-04
 Coeff:     -0.110D-02 0.950D-04 0.730D-02 0.879D-02-0.107D+00-0.244D-01
 Coeff:      0.112D+01
 Gap=     0.548 Goal=   None    Shift=    0.000
 RMSDP=6.23D-09 MaxDP=3.85D-07 DE=-8.41D-12 OVMax= 3.10D-07

 SCF Done:  E(RHF) =  -282.949713665     A.U. after   13 cycles
            NFock= 13  Conv=0.62D-08     -V/T= 2.0010
 KE= 2.826702444676D+02 PE=-1.026005798249D+03 EE= 2.806454358442D+02
 Leave Link  502 at Thu Apr 15 11:18:22 2021, MaxMem= 13421772800 cpu:             376.8 elap:              14.9
 (Enter /home/hexuye/G16_1123/data2/software/Gaussian/g16_from_xuruiqin/g16/l801.exe)
 Windowed orbitals will be sorted by symmetry type.
 Range of M.O.s used for correlation:     1   285
 NBasis=   285 NAE=    20 NBE=    20 NFC=     0 NFV=     0
 NROrb=    285 NOA=    20 NOB=    20 NVA=   265 NVB=   265

 **** Warning!!: The largest alpha MO coefficient is  0.13385813D+02

 Leave Link  801 at Thu Apr 15 11:18:23 2021, MaxMem= 13421772800 cpu:               3.8 elap:               0.1
 (Enter /home/hexuye/G16_1123/data2/software/Gaussian/g16_from_xuruiqin/g16/l804.exe)
 Closed-shell transformation, MDV= 13421772800 ITran=4 ISComp=2.
 Unit  1 TFree=       2681952 TCopy=       1398376.
 Semi-Direct transformation.
 ModeAB=           4 MOrb=            20 LenV=   13419612695
 LASXX=    111947501 LTotXX=   111947501 LenRXX=   225194543
 LTotAB=   113247042 MaxLAS=   231078000 LenRXY=           0
 NonZer=   337142044 LenScr=   506068992 LnRSAI=   231078000
 LnScr1=   347078656 LExtra=           0 Total=   1309420191
 MaxDsk=          -1 SrtSym=           T ITran=            4
 DoSDTr:  NPSUse= 64
 JobTyp=0 Pass  1:  I=   1 to  20.
 (rs|ai) integrals will be sorted in core.
 Complete sort for first half transformation.
 First half transformation complete.
 Begin second half transformation for I=  10.
 Begin second half transformation for I=  20.
 Complete sort for second half transformation.
 Second half transformation complete.
 Spin components of T(2) and E(2):
     alpha-alpha T2 =       0.3587043314D-01 E2=     -0.1434133856D+00
     alpha-beta  T2 =       0.2007618053D+00 E2=     -0.9825996205D+00
     beta-beta   T2 =       0.3587043314D-01 E2=     -0.1434133856D+00
 ANorm=    0.1128052601D+01
 E2 =    -0.1269426392D+01 EUMP2 =    -0.28421914005664D+03
 Leave Link  804 at Thu Apr 15 11:18:58 2021, MaxMem= 13421772800 cpu:            2240.4 elap:              35.3
 (Enter /home/hexuye/G16_1123/data2/software/Gaussian/g16_from_xuruiqin/g16/l913.exe)
 CIDS:  MDV= 13421772800.
 IFCWin=0 IBDFC=1 NFBD=     0     0 NFCmp=     0     0 NFFFC=     0     0
 Using DD3R+UMP44R for 1st iteration.
 Using DD4RQ for 2nd and later iterations.
 Keep R2 and R3 ints in memory in symmetry-blocked form, NReq=1254677581.
 FoFCou: FMM=F IPFlag=           0 FMFlag=           0 FMFlg1=           0
         NFxFlg=           0 DoJE=F BraDBF=F KetDBF=F FulRan=T
         wScrn=  0.000000 ICntrl=       600 IOpCl=  0 I1Cent=           0 NGrid=           0
         NMat0=    1 NMatS0=  40755 NMatT0=    0 NMatD0=    1 NMtDS0=    0 NMtDT0=    0
 Petite list used in FoFCou.
 CIDS: In Core Option IDoMem=           1.
 CCSD(T)
 =======
 Iterations=  50 Convergence= 0.100D-06
 Produce multiple copies of IABC intergrals
 Iteration Nr.   1
 **********************
 DD1Dir will call FoFMem   1 times, MxPair=       420
 NAB=   210 NAA=     0 NBB=     0.
 MP4(R+Q)=  0.24227954D-01
 Maximum subspace dimension=  5
 A-vector RMS=  1.7870424D-03 Max=  2.4606123D-02 conv= 1.00D-05.
 RLE energy=       -1.2625383865
 E3=       -0.17917603D-01        EUMP3=      -0.28423705766D+03
 E4(DQ)=    0.29608111D-02        UMP4(DQ)=   -0.28423409685D+03
 E4(SDQ)=  -0.96786823D-02        UMP4(SDQ)=  -0.28424673634D+03
 VARIATIONAL ENERGIES WITH THE FIRST-ORDER WAVEFUNCTION:
 DE(Corr)=  -1.2625011     E(Corr)=     -284.21221477    
 NORM(A)=   0.11273557D+01
 Iteration Nr.   2
 **********************
 DD1Dir will call FoFMem   1 times, MxPair=       420
 NAB=   210 NAA=     0 NBB=     0.
 A-vector RMS=  2.6642953D-04 Max=  7.1981528D-03 conv= 1.00D-05.
 RLE energy=       -1.2920790896
 DE(Corr)=  -1.2923050     E(CORR)=     -284.24201867     Delta=-2.98D-02
 NORM(A)=   0.11363784D+01
 Iteration Nr.   3
 **********************
 DD1Dir will call FoFMem   1 times, MxPair=       420
 NAB=   210 NAA=     0 NBB=     0.
 A-vector RMS=  3.3329897D-04 Max=  5.7964225D-03 conv= 1.00D-05.
 RLE energy=       -1.2936028303
 DE(Corr)=  -1.2911825     E(CORR)=     -284.24089619     Delta= 1.12D-03
 NORM(A)=   0.11388939D+01
 Iteration Nr.   4
 **********************
 DD1Dir will call FoFMem   1 times, MxPair=       420
 NAB=   210 NAA=     0 NBB=     0.
 A-vector RMS=  5.5190776D-05 Max=  1.0304364D-03 conv= 1.00D-05.
 RLE energy=       -1.2937765891
 DE(Corr)=  -1.2935896     E(CORR)=     -284.24330327     Delta=-2.41D-03
 NORM(A)=   0.11396648D+01
 Iteration Nr.   5
 **********************
 DD1Dir will call FoFMem   1 times, MxPair=       420
 NAB=   210 NAA=     0 NBB=     0.
 A-vector RMS=  3.4421955D-05 Max=  5.8994837D-04 conv= 1.00D-05.
 RLE energy=       -1.2939006870
 DE(Corr)=  -1.2938520     E(CORR)=     -284.24356564     Delta=-2.62D-04
 NORM(A)=   0.11399122D+01
 Iteration Nr.   6
 **********************
 DD1Dir will call FoFMem   1 times, MxPair=       420
 NAB=   210 NAA=     0 NBB=     0.
 A-vector RMS=  9.1148202D-06 Max=  1.6173919D-04 conv= 1.00D-05.
 RLE energy=       -1.2938801385
 DE(Corr)=  -1.2938744     E(CORR)=     -284.24358807     Delta=-2.24D-05
 NORM(A)=   0.11399391D+01
 Iteration Nr.   7
 **********************
 DD1Dir will call FoFMem   1 times, MxPair=       420
 NAB=   210 NAA=     0 NBB=     0.
 A-vector RMS=  3.7700096D-06 Max=  5.8544595D-05 conv= 1.00D-05.
 RLE energy=       -1.2938632664
 DE(Corr)=  -1.2938761     E(CORR)=     -284.24358972     Delta=-1.65D-06
 NORM(A)=   0.11399414D+01
 Iteration Nr.   8
 **********************
 DD1Dir will call FoFMem   1 times, MxPair=       420
 NAB=   210 NAA=     0 NBB=     0.
 A-vector RMS=  1.4521082D-06 Max=  2.2759126D-05 conv= 1.00D-05.
 RLE energy=       -1.2938741074
 DE(Corr)=  -1.2938749     E(CORR)=     -284.24358858     Delta= 1.14D-06
 NORM(A)=   0.11399452D+01
 Iteration Nr.   9
 **********************
 DD1Dir will call FoFMem   1 times, MxPair=       420
 NAB=   210 NAA=     0 NBB=     0.
 A-vector RMS=  3.8295075D-07 Max=  5.8684995D-06 conv= 1.00D-05.
 RLE energy=       -1.2938733870
 DE(Corr)=  -1.2938738     E(CORR)=     -284.24358742     Delta= 1.17D-06
 NORM(A)=   0.11399456D+01
 Iteration Nr.  10
 **********************
 DD1Dir will call FoFMem   1 times, MxPair=       420
 NAB=   210 NAA=     0 NBB=     0.
 A-vector RMS=  2.1644757D-07 Max=  3.9413056D-06 conv= 1.00D-05.
 RLE energy=       -1.2938745636
 DE(Corr)=  -1.2938746     E(CORR)=     -284.24358824     Delta=-8.19D-07
 NORM(A)=   0.11399462D+01
 Iteration Nr.  11
 **********************
 DD1Dir will call FoFMem   1 times, MxPair=       420
 NAB=   210 NAA=     0 NBB=     0.
 A-vector RMS=  7.6448185D-08 Max=  1.2831925D-06 conv= 1.00D-05.
 RLE energy=       -1.2938749380
 DE(Corr)=  -1.2938748     E(CORR)=     -284.24358843     Delta=-1.90D-07
 NORM(A)=   0.11399465D+01
 Iteration Nr.  12
 **********************
 DD1Dir will call FoFMem   1 times, MxPair=       420
 NAB=   210 NAA=     0 NBB=     0.
 A-vector RMS=  3.5308553D-08 Max=  6.5763326D-07 conv= 1.00D-05.
 RLE energy=       -1.2938749760
 DE(Corr)=  -1.2938749     E(CORR)=     -284.24358860     Delta=-1.71D-07
 NORM(A)=   0.11399467D+01
 Iteration Nr.  13
 **********************
 DD1Dir will call FoFMem   1 times, MxPair=       420
 NAB=   210 NAA=     0 NBB=     0.
 A-vector RMS=  1.9798944D-08 Max=  3.2989572D-07 conv= 1.00D-05.
 RLE energy=       -1.2938750341
 DE(Corr)=  -1.2938750     E(CORR)=     -284.24358867     Delta=-7.19D-08
 NORM(A)=   0.11399467D+01
 CI/CC converged in   13 iterations to DelEn=-7.19D-08 Conv= 1.00D-07 ErrA1= 1.98D-08 Conv= 1.00D-05
 Wavefunction amplitudes converged. E(Corr)=     -284.24358867    
 Largest amplitude= 4.25D-02
 IPart= 60 IA=   15   10.31% done.
 IPart= 53 IA=   29   20.05% done.
 IPart=  3 IA=   45   30.50% done.
 IPart= 48 IA=   61   40.22% done.
 IPart=  9 IA=   79   50.28% done.
 IPart=  4 IA=   99   60.37% done.
 IPart=  7 IA=  121   70.15% done.
 IPart= 29 IA=  148   80.27% done.
 IPart= 61 IA=  182   90.03% done.
 Time for triples=   174802.41 seconds.
 T4(CCSD)= -0.47937147D-01
 T5(CCSD)=  0.21349673D-02
 CCSD(T)= -0.28428939085D+03
 Discarding MO integrals.
 Leave Link  913 at Thu Apr 15 12:14:56 2021, MaxMem= 13421772800 cpu:          212578.0 elap:            3338.7
 (Enter /home/hexuye/G16_1123/data2/software/Gaussian/g16_from_xuruiqin/g16/l601.exe)
 Copying SCF densities to generalized density rwf, IOpCl= 0 IROHF=0.

 **********************************************************************

            Population analysis using the SCF Density.

 **********************************************************************

 Orbital symmetries:
       Occupied  (A') (A') (A') (A') (A') (A') (A') (A') (A') (A')
                 (A') (A') (A") (A") (A') (A') (A") (A") (A') (A')
       Virtual   (A') (A') (A") (A') (A") (A") (A') (A') (A') (A')
                 (A") (A') (A") (A') (A") (A') (A') (A') (A") (A')
                 (A') (A') (A') (A') (A") (A') (A") (A') (A') (A")
                 (A') (A") (A') (A") (A') (A") (A") (A') (A') (A')
                 (A") (A') (A") (A') (A') (A") (A') (A") (A") (A')
                 (A') (A') (A") (A') (A') (A') (A") (A') (A') (A")
                 (A') (A") (A') (A') (A') (A") (A") (A') (A') (A")
                 (A') (A") (A') (A') (A") (A') (A') (A") (A') (A')
                 (A') (A") (A') (A') (A') (A") (A') (A") (A') (A")
                 (A') (A") (A') (A") (A') (A') (A") (A') (A") (A')
                 (A") (A') (A') (A") (A") (A') (A") (A") (A') (A")
                 (A') (A") (A') (A') (A") (A") (A') (A") (A') (A")
                 (A') (A') (A') (A') (A") (A') (A") (A") (A') (A")
                 (A') (A') (A") (A') (A") (A') (A') (A') (A") (A')
                 (A") (A") (A') (A") (A') (A') (A') (A') (A") (A')
                 (A') (A') (A") (A') (A") (A') (A') (A') (A") (A")
                 (A') (A") (A') (A') (A') (A') (A") (A') (A") (A')
                 (A") (A') (A') (A") (A') (A') (A') (A") (A") (A")
                 (A') (A") (A') (A") (A') (A") (A') (A") (A') (A')
                 (A") (A") (A') (A") (A') (A') (A') (A') (A') (A')
                 (A") (A') (A') (A') (A") (A') (A') (A') (A") (A')
                 (A") (A') (A") (A') (A') (A') (A") (A") (A') (A')
                 (A') (A') (A") (A") (A') (A') (A') (A') (A") (A')
                 (A') (A') (A") (A') (A') (A") (A") (A') (A") (A')
                 (A") (A') (A') (A') (A') (A") (A') (A') (A') (A")
                 (A') (A') (A') (A') (A") (A') (A') (A") (A") (A')
                 (A') (A') (A') (A') (A')
 The electronic state is 1-A'.
 Alpha  occ. eigenvalues --  -20.61357 -20.55084 -15.54706 -11.38325 -11.27518
 Alpha  occ. eigenvalues --   -1.47062  -1.36736  -1.19634  -0.97831  -0.81606
 Alpha  occ. eigenvalues --   -0.70927  -0.69887  -0.69576  -0.62970  -0.60207
 Alpha  occ. eigenvalues --   -0.58659  -0.53536  -0.48908  -0.46649  -0.41055
 Alpha virt. eigenvalues --    0.13728   0.15408   0.16693   0.18258   0.19446
 Alpha virt. eigenvalues --    0.25214   0.32122   0.33504   0.35699   0.41386
 Alpha virt. eigenvalues --    0.45111   0.45774   0.47026   0.50742   0.54171
 Alpha virt. eigenvalues --    0.55212   0.57727   0.58927   0.59485   0.62931
 Alpha virt. eigenvalues --    0.64744   0.67664   0.69945   0.70564   0.72055
 Alpha virt. eigenvalues --    0.74278   0.74495   0.79413   0.79838   0.80202
 Alpha virt. eigenvalues --    0.89079   0.90211   0.91473   0.92783   0.96570
 Alpha virt. eigenvalues --    1.00064   1.04193   1.07668   1.10071   1.13871
 Alpha virt. eigenvalues --    1.20132   1.21482   1.22185   1.26577   1.30073
 Alpha virt. eigenvalues --    1.31167   1.35387   1.35502   1.39220   1.40670
 Alpha virt. eigenvalues --    1.45330   1.46725   1.49986   1.52030   1.54653
 Alpha virt. eigenvalues --    1.56632   1.58136   1.61973   1.72843   1.78335
 Alpha virt. eigenvalues --    1.80640   1.81692   1.84542   1.87744   1.95083
 Alpha virt. eigenvalues --    1.98501   2.03360   2.10281   2.19985   2.25387
 Alpha virt. eigenvalues --    2.27347   2.29258   2.29974   2.36222   2.36930
 Alpha virt. eigenvalues --    2.51261   2.58700   2.59989   2.68457   2.70579
 Alpha virt. eigenvalues --    2.75301   2.77306   2.86389   2.89879   2.93794
 Alpha virt. eigenvalues --    2.94298   3.01506   3.03621   3.07690   3.17986
 Alpha virt. eigenvalues --    3.21390   3.22395   3.23347   3.25648   3.25751
 Alpha virt. eigenvalues --    3.31677   3.34190   3.38317   3.38337   3.44170
 Alpha virt. eigenvalues --    3.46721   3.50910   3.53260   3.55139   3.57815
 Alpha virt. eigenvalues --    3.59630   3.60659   3.65443   3.68895   3.72076
 Alpha virt. eigenvalues --    3.72930   3.73754   3.76960   3.78451   3.80714
 Alpha virt. eigenvalues --    3.88057   3.91110   3.92320   3.94292   3.94538
 Alpha virt. eigenvalues --    3.97330   4.02638   4.04916   4.06568   4.09551
 Alpha virt. eigenvalues --    4.16048   4.17886   4.22698   4.24568   4.24841
 Alpha virt. eigenvalues --    4.29349   4.34004   4.34346   4.39293   4.39500
 Alpha virt. eigenvalues --    4.44758   4.46507   4.48058   4.48061   4.56249
 Alpha virt. eigenvalues --    4.59669   4.64347   4.65529   4.69141   4.73573
 Alpha virt. eigenvalues --    4.80161   4.87200   5.00191   5.02052   5.04741
 Alpha virt. eigenvalues --    5.06114   5.14290   5.17201   5.22717   5.30059
 Alpha virt. eigenvalues --    5.33478   5.41108   5.46234   5.49154   5.53276
 Alpha virt. eigenvalues --    5.56858   5.60832   5.61918   5.67355   5.72953
 Alpha virt. eigenvalues --    5.75147   5.85505   5.87964   5.96179   6.02284
 Alpha virt. eigenvalues --    6.06467   6.06483   6.12150   6.12611   6.15592
 Alpha virt. eigenvalues --    6.22845   6.33243   6.39448   6.46854   6.52782
 Alpha virt. eigenvalues --    6.55684   6.69624   6.83731   6.84820   6.93555
 Alpha virt. eigenvalues --    6.96266   7.01515   7.04994   7.17592   7.20820
 Alpha virt. eigenvalues --    7.22227   7.25746   7.36116   7.37069   7.44236
 Alpha virt. eigenvalues --    7.51394   7.64739   7.82116   8.00592   8.31081
 Alpha virt. eigenvalues --   10.45622  11.32353  11.38559  11.49808  11.58068
 Alpha virt. eigenvalues --   11.89923  13.22927  13.48125  14.76021  14.87024
 Alpha virt. eigenvalues --   14.97158  15.05522  15.06186  15.07959  15.40993
 Alpha virt. eigenvalues --   15.57502  15.65582  15.70697  15.88409  16.06195
 Alpha virt. eigenvalues --   16.25983  17.82985  19.04770  19.15672  19.40227
 Alpha virt. eigenvalues --   19.64633  20.17021  20.29990  21.97315  21.97327
 Alpha virt. eigenvalues --   22.05612  22.36745  22.60009  22.85684  23.16326
 Alpha virt. eigenvalues --   30.04395  30.08261  30.09541  30.17079  30.19874
 Alpha virt. eigenvalues --   30.23518  30.30271  30.36874  30.50593  30.58714
 Alpha virt. eigenvalues --   50.34522  50.92067  51.04082  51.13058  51.19210
 Alpha virt. eigenvalues --   51.30170  62.74388  63.27546  70.37552  70.77899
 Alpha virt. eigenvalues --   71.04729  83.55604  90.42420  90.51813  90.68998
 Alpha virt. eigenvalues --   90.88753  91.30808  91.41410 107.98174 108.31550
          Condensed to atoms (all electrons):
               1          2          3          4          5          6
     1  C    4.165009   0.414683   0.746396  -0.029682   0.361743  -0.078547
     2  O    0.414683   7.773635  -0.086065   0.324583  -0.074097   0.003666
     3  O    0.746396  -0.086065   7.874010   0.006120  -0.090959  -0.000705
     4  H   -0.029682   0.324583   0.006120   0.450085   0.009954  -0.000805
     5  C    0.361743  -0.074097  -0.090959   0.009954   4.722739   0.366339
     6  N   -0.078547   0.003666  -0.000705  -0.000805   0.366339   6.251939
     7  H   -0.036730   0.003679   0.001112  -0.000748   0.410894  -0.025658
     8  H   -0.036730   0.003679   0.001112  -0.000748   0.410894  -0.025658
     9  H   -0.003122   0.000242   0.005476  -0.000060  -0.046869   0.404783
    10  H   -0.003122   0.000242   0.005476  -0.000060  -0.046869   0.404783
               7          8          9         10
     1  C   -0.036730  -0.036730  -0.003122  -0.003122
     2  O    0.003679   0.003679   0.000242   0.000242
     3  O    0.001112   0.001112   0.005476   0.005476
     4  H   -0.000748  -0.000748  -0.000060  -0.000060
     5  C    0.410894   0.410894  -0.046869  -0.046869
     6  N   -0.025658  -0.025658   0.404783   0.404783
     7  H    0.577104  -0.019464  -0.006703   0.007889
     8  H   -0.019464   0.577104   0.007889  -0.006703
     9  H   -0.006703   0.007889   0.558142  -0.035479
    10  H    0.007889  -0.006703  -0.035479   0.558142
 Mulliken charges:
               1
     1  C    0.500103
     2  O   -0.364247
     3  O   -0.461973
     4  H    0.241362
     5  C   -0.023767
     6  N   -0.300137
     7  H    0.088626
     8  H    0.088626
     9  H    0.115703
    10  H    0.115703
 Sum of Mulliken charges =  -0.00000
 Mulliken charges with hydrogens summed into heavy atoms:
               1
     1  C    0.500103
     2  O   -0.122884
     3  O   -0.461973
     5  C    0.153485
     6  N   -0.068731
 Electronic spatial extent (au):  <R**2>=            419.2301
 Charge=             -0.0000 electrons
 Dipole moment (field-independent basis, Debye):
    X=              1.0189    Y=              0.6914    Z=              0.0000  Tot=              1.2313
 Quadrupole moment (field-independent basis, Debye-Ang):
   XX=            -32.8218   YY=            -29.7057   ZZ=            -27.0568
   XY=              2.7752   XZ=             -0.0000   YZ=             -0.0000
 Traceless Quadrupole moment (field-independent basis, Debye-Ang):
   XX=             -2.9604   YY=              0.1557   ZZ=              2.8047
   XY=              2.7752   XZ=             -0.0000   YZ=             -0.0000
 Octapole moment (field-independent basis, Debye-Ang**2):
  XXX=             -0.5777  YYY=             39.9198  ZZZ=             -0.0000  XYY=             -1.1489
  XXY=             -7.9665  XXZ=             -0.0000  XZZ=             -1.3469  YZZ=             -1.5758
  YYZ=              0.0000  XYZ=              0.0000
 Hexadecapole moment (field-independent basis, Debye-Ang**3):
 XXXX=           -146.0303 YYYY=           -324.8549 ZZZZ=            -33.4643 XXXY=            -13.9213
 XXXZ=             -0.0000 YYYX=             -1.2602 YYYZ=             -0.0000 ZZZX=              0.0000
 ZZZY=             -0.0000 XXYY=            -75.7137 XXZZ=            -26.3352 YYZZ=            -55.0109
 XXYZ=              0.0000 YYXZ=             -0.0000 ZZXY=             -3.5827
 N-N= 1.797404042721D+02 E-N=-1.026005796226D+03  KE= 2.826702444676D+02
 Symmetry A'   KE= 2.698498034777D+02
 Symmetry A"   KE= 1.282044098985D+01
 Leave Link  601 at Thu Apr 15 12:15:00 2021, MaxMem= 13421772800 cpu:              38.7 elap:               3.8
 (Enter /home/hexuye/G16_1123/data2/software/Gaussian/g16_from_xuruiqin/g16/l9999.exe)
 Unable to Open any file for archive entry.
 1\1\GINC-CU38\SP\RCCSD(T)-Full\Gen\C2H5N1O2\ROOT\15-Apr-2021\0\\#p CCS
 D(T)=FULL/gen\\start best geom PCCP paper\\0,1\C\O,1,1.3486\O,1,1.2025
 ,2,123.0718\H,2,0.9651,1,107.1011,3,0.,0\C,1,1.5141,3,125.77,2,180.,0\
 N,5,1.442,1,115.3802,3,0.,0\H,5,1.0905,1,107.3709,3,-123.1312,0\H,5,1.
 0905,1,107.3709,3,123.1312,0\H,6,1.0109,5,110.5508,1,-58.6741,0\H,6,1.
 0109,5,110.5508,1,58.6741,0\\Version=ES64L-G16RevC.01\State=1-A'\HF=-2
 82.9497137\MP2=-284.2191401\MP3=-284.2370577\MP4D=-284.2583248\MP4DQ=-
 284.2340968\MP4SDQ=-284.2467363\CCSD=-284.2435887\CCSD(T)=-284.2893908
 \RMSD=6.230e-09\PG=CS [SG(C2H1N1O2),X(H4)]\\@
 The archive entry for this job was punched.


 PENOTUS DIED A HUNDRED YEARS OLD WANTING BUT TWO...
 AND HE USED TO SAY BEFORE HE DIED, HAVING SPENT HIS
 WHOLE LIFE IN VAINLY SEARCHING AFTER THE PHILOSOPHER'S
 STONE, THAT IF HE HAD A MORTAL ENEMY HE DID NOT DARE
 TO ENCOUNTER OPENLY, HE WOULD ADVISE HIM ABOVE ALL
 THINGS TO GIVE HIMSELF UP TO THE STUDY AND PRACTICE
 OF ALCHEMY.  --  NICOLAS LEMERY, M.D.
 "A COURSE OF CHYMISTRY", WALTER KETTILBY, LONDON, 1686
 Job cpu time:       2 days 11 hours 49 minutes 43.5 seconds.
 Elapsed time:       0 days  0 hours 56 minutes 35.5 seconds.
 File lengths (MBytes):  RWF=  10283 Int=      0 D2E=      0 Chk=      7 Scr=      2
 Normal termination of Gaussian 16 at Thu Apr 15 12:15:02 2021.
