 Entering Gaussian System, Link 0=g16
 Input=pII_MP2-cc-pCVTZ-ae.gjf
 Output=pII_MP2-cc-pCVTZ-ae.log
 AtFile(1): /home/malgo/ping/cc_pCVTZ_CHON.gbs
            H 0
            cc-pVTZ
            ****
            C     0
            S   10   1.00
               8236.0000000              0.0005310
               1235.0000000              0.0041080
                280.8000000              0.0210870
                 79.2700000              0.0818530
                 25.5900000              0.2348170
                  8.9970000              0.4344010
                  3.3190000              0.3461290
                  0.9059000              0.0393780
                  0.3643000             -0.0089830
                  0.1285000              0.0023850
            S   10   1.00
               8236.0000000             -0.0001130
               1235.0000000             -0.0008780
                280.8000000             -0.0045400
                 79.2700000             -0.0181330
                 25.5900000             -0.0557600
                  8.9970000             -0.1268950
                  3.3190000             -0.1703520
                  0.9059000              0.1403820
                  0.3643000              0.5986840
                  0.1285000              0.3953890
            S   1   1.00
                 11.8760000              1.0000000
            S   1   1.00
                  4.2920000              1.0000000
            S   1   1.00
                  0.9059000              1.0000000
            S   1   1.00
                  0.1285000              1.0000000
            P   5   1.00
                 18.7100000              0.0140310
                  4.1330000              0.0868660
                  1.2000000              0.2902160
                  0.3827000              0.5010080
                  0.1209000              0.3434060
            P   1   1.00
                 33.1900000              1.0000000
            P   1   1.00
                  8.7780000              1.0000000
            P   1   1.00
                  0.3827000              1.0000000
            P   1   1.00
                  0.1209000              1.0000000
            D   1   1.00
                 14.8390000              1.0000000
            D   1   1.00
                  1.0970000              1.0000000
            D   1   1.00
                  0.3180000              1.0000000
            F   1   1.00
                  0.7610000              1.0000000
            ****
            N 0
            S   10   1.00
              11420.0000000              0.0005230
               1712.0000000              0.0040450
                389.3000000              0.0207750
                110.0000000              0.0807270
                 35.5700000              0.2330740
                 12.5400000              0.4335010
                  4.6440000              0.3474720
                  1.2930000              0.0412620
                  0.5118000             -0.0085080
                  0.1787000              0.0023840
            S   10   1.00
              11420.0000000             -0.0001150
               1712.0000000             -0.0008950
                389.3000000             -0.0046240
                110.0000000             -0.0185280
                 35.5700000             -0.0573390
                 12.5400000             -0.1320760
                  4.6440000             -0.1725100
                  1.2930000              0.1518140
                  0.5118000              0.5999440
                  0.1787000              0.3874620
            S   1   1.00
                 16.2010000              1.0000000
            S   1   1.00
                  5.9520000              1.0000000
            S   1   1.00
                  1.2930000              1.0000000
            S   1   1.00
                  0.1787000              1.0000000
            P   5   1.00
                 26.6300000              0.0146700
                  5.9480000              0.0917640
                  1.7420000              0.2986830
                  0.5550000              0.4984870
                  0.1725000              0.3370230
            P   1   1.00
                 44.8490000              1.0000000
            P   1   1.00
                 11.8710000              1.0000000
            P   1   1.00
                  0.5550000              1.0000000
            P   1   1.00
                  0.1725000              1.0000000
            D   1   1.00
                 14.2000000              1.0000000
            D   1   1.00
                  1.6540000              1.0000000
            D   1   1.00
                  0.4690000              1.0000000
            F   1   1.00
                  1.0930000              1.0000000
            ****
            O 0
            S   10   1.00
              15330.0000000              0.0005080
               2299.0000000              0.0039290
                522.4000000              0.0202430
                147.3000000              0.0791810
                 47.5500000              0.2306870
                 16.7600000              0.4331180
                  6.2070000              0.3502600
                  1.7520000              0.0427280
                  0.6882000             -0.0081540
                  0.2384000              0.0023810
            S   10   1.00
              15330.0000000             -0.0001150
               2299.0000000             -0.0008950
                522.4000000             -0.0046360
                147.3000000             -0.0187240
                 47.5500000             -0.0584630
                 16.7600000             -0.1364630
                  6.2070000             -0.1757400
                  1.7520000              0.1609340
                  0.6882000              0.6034180
                  0.2384000              0.3787650
            S   1   1.00
                 21.0320000              1.0000000
            S   1   1.00
                  7.8450000              1.0000000
            S   1   1.00
                  1.7520000              1.0000000
            S   1   1.00
                  0.2384000              1.0000000
            P   5   1.00
                 34.4600000              0.0159280
                  7.7490000              0.0997400
                  2.2800000              0.3104920
                  0.7156000              0.4910260
                  0.2140000              0.3363370
            P   1   1.00
                 57.4370000              1.0000000
            P   1   1.00
                 15.1590000              1.0000000
            P   1   1.00
                  0.7156000              1.0000000
            P   1   1.00
                  0.2140000              1.0000000
            D   1   1.00
                 15.8580000              1.0000000
            D   1   1.00
                  2.3140000              1.0000000
            D   1   1.00
                  0.6450000              1.0000000
            F   1   1.00
                  1.4280000              1.0000000
            ****
 Initial command:
 /home/share/software/programs/Gaussian/g16/l1.exe "/home/qr/scratch/Gau-457632.inp" -scrdir="/home/qr/scratch/"
 Entering Link 1 = /home/share/software/programs/Gaussian/g16/l1.exe PID=    457633.
  
 Copyright (c) 1988-2019, Gaussian, Inc.  All Rights Reserved.
  
 This is part of the Gaussian(R) 16 program.  It is based on
 the Gaussian(R) 09 system (copyright 2009, Gaussian, Inc.),
 the Gaussian(R) 03 system (copyright 2003, Gaussian, Inc.),
 the Gaussian(R) 98 system (copyright 1998, Gaussian, Inc.),
 the Gaussian(R) 94 system (copyright 1995, Gaussian, Inc.),
 the Gaussian 92(TM) system (copyright 1992, Gaussian, Inc.),
 the Gaussian 90(TM) system (copyright 1990, Gaussian, Inc.),
 the Gaussian 88(TM) system (copyright 1988, Gaussian, Inc.),
 the Gaussian 86(TM) system (copyright 1986, Carnegie Mellon
 University), and the Gaussian 82(TM) system (copyright 1983,
 Carnegie Mellon University). Gaussian is a federally registered
 trademark of Gaussian, Inc.
  
 This software contains proprietary and confidential information,
 including trade secrets, belonging to Gaussian, Inc.
  
 This software is provided under written license and may be
 used, copied, transmitted, or stored only in accord with that
 written license.
  
 The following legend is applicable only to US Government
 contracts under FAR:
  
                    RESTRICTED RIGHTS LEGEND
  
 Use, reproduction and disclosure by the US Government is
 subject to restrictions as set forth in subparagraphs (a)
 and (c) of the Commercial Computer Software - Restricted
 Rights clause in FAR 52.227-19.
  
 Gaussian, Inc.
 340 Quinnipiac St., Bldg. 40, Wallingford CT 06492
  
  
 ---------------------------------------------------------------
 Warning -- This program may not be used in any manner that
 competes with the business of Gaussian, Inc. or will provide
 assistance to any competitor of Gaussian, Inc.  The licensee
 of this program is prohibited from giving any competitor of
 Gaussian, Inc. access to this program.  By using this program,
 the user acknowledges that Gaussian, Inc. is engaged in the
 business of creating and licensing software in the field of
 computational chemistry and represents and warrants to the
 licensee that it is not a competitor of Gaussian, Inc. and that
 it will not use this program in any manner prohibited above.
 ---------------------------------------------------------------
  

 Cite this work as:
 Gaussian 16, Revision C.01,
 M. J. Frisch, G. W. Trucks, H. B. Schlegel, G. E. Scuseria, 
 M. A. Robb, J. R. Cheeseman, G. Scalmani, V. Barone, 
 G. A. Petersson, H. Nakatsuji, X. Li, M. Caricato, A. V. Marenich, 
 J. Bloino, B. G. Janesko, R. Gomperts, B. Mennucci, H. P. Hratchian, 
 J. V. Ortiz, A. F. Izmaylov, J. L. Sonnenberg, D. Williams-Young, 
 F. Ding, F. Lipparini, F. Egidi, J. Goings, B. Peng, A. Petrone, 
 T. Henderson, D. Ranasinghe, V. G. Zakrzewski, J. Gao, N. Rega, 
 G. Zheng, W. Liang, M. Hada, M. Ehara, K. Toyota, R. Fukuda, 
 J. Hasegawa, M. Ishida, T. Nakajima, Y. Honda, O. Kitao, H. Nakai, 
 T. Vreven, K. Throssell, J. A. Montgomery, Jr., J. E. Peralta, 
 F. Ogliaro, M. J. Bearpark, J. J. Heyd, E. N. Brothers, K. N. Kudin, 
 V. N. Staroverov, T. A. Keith, R. Kobayashi, J. Normand, 
 K. Raghavachari, A. P. Rendell, J. C. Burant, S. S. Iyengar, 
 J. Tomasi, M. Cossi, J. M. Millam, M. Klene, C. Adamo, R. Cammi, 
 J. W. Ochterski, R. L. Martin, K. Morokuma, O. Farkas, 
 J. B. Foresman, and D. J. Fox, Gaussian, Inc., Wallingford CT, 2019.
 
 ******************************************
 Gaussian 16:  ES64L-G16RevC.01  3-Jul-2019
                11-Jan-2021 
 ******************************************
 %nprocshared=64
 Will use up to   64 processors via shared memory.
 %mem=60GB
 %chk=pII_MP2-cc-pCVTZ-ae.chk
 ---------------
 #p mp2=full/gen
 ---------------
 1/38=1,172=1/1;
 2/12=2,17=6,18=5,40=1/2;
 3/5=7,11=9,25=1,30=1/1,2,3;
 4//1;
 5/5=2,38=5/2;
 8/10=90/1;
 9/16=-3/6;
 6/7=2,8=2,9=2,10=2/1;
 99/5=1,9=1/99;
 Leave Link    1 at Mon Jan 11 16:49:55 2021, MaxMem=  8053063680 cpu:               2.4 elap:               0.0
 (Enter /home/share/software/programs/Gaussian/g16/l101.exe)
 --
 SP
 --
 Symbolic Z-matrix:
 Charge =  0 Multiplicity = 1
 C                     0.81057  -2.41719   0.146 
 H                     1.20941  -2.3972    1.16546 
 H                     1.64553  -2.1808   -0.51872 
 C                    -0.24463  -1.31643   0.05468 
 O                    -1.44543  -1.55264   0.04553 
 N                     0.24084  -0.05073   0.01737 
 H                     1.23115   0.13904   0.01626 
 C                    -0.64464   1.08224   0.00381 
 H                    -1.30344   1.069    -0.86897 
 H                    -1.29702   1.09622   0.8816 
 C                     0.17143   2.34653  -0.0192 
 O                     1.3788    2.39194  -0.02324 
 O                    -0.61505   3.43576  -0.03488 
 H                    -0.02881   4.20663  -0.04874 
 N                     0.32046  -3.74925  -0.14566 
 H                    -0.53391  -3.90226   0.38 
 H                     0.045    -3.80213  -1.11986 
 
 ITRead=  0  0  0  0  0  0  0  0  0  0  0  0  0  0  0  0  0
 MicOpt= -1 -1 -1 -1 -1 -1 -1 -1 -1 -1 -1 -1 -1 -1 -1 -1 -1
 NAtoms=     17 NQM=       17 NQMF=       0 NMMI=      0 NMMIF=      0
                NMic=       0 NMicF=      0.
                    Isotopes and Nuclear Properties:
 (Nuclear quadrupole moments (NQMom) in fm**2, nuclear magnetic moments (NMagM)
  in nuclear magnetons)

  Atom         1           2           3           4           5           6           7           8           9          10
 IAtWgt=          12           1           1          12          16          14           1          12           1           1
 AtmWgt=  12.0000000   1.0078250   1.0078250  12.0000000  15.9949146  14.0030740   1.0078250  12.0000000   1.0078250   1.0078250
 NucSpn=           0           1           1           0           0           2           1           0           1           1
 AtZEff=  -0.0000000  -0.0000000  -0.0000000  -0.0000000  -0.0000000  -0.0000000  -0.0000000  -0.0000000  -0.0000000  -0.0000000
 NQMom=    0.0000000   0.0000000   0.0000000   0.0000000   0.0000000   2.0440000   0.0000000   0.0000000   0.0000000   0.0000000
 NMagM=    0.0000000   2.7928460   2.7928460   0.0000000   0.0000000   0.4037610   2.7928460   0.0000000   2.7928460   2.7928460
 AtZNuc=   6.0000000   1.0000000   1.0000000   6.0000000   8.0000000   7.0000000   1.0000000   6.0000000   1.0000000   1.0000000

  Atom        11          12          13          14          15          16          17
 IAtWgt=          12          16          16           1          14           1           1
 AtmWgt=  12.0000000  15.9949146  15.9949146   1.0078250  14.0030740   1.0078250   1.0078250
 NucSpn=           0           0           0           1           2           1           1
 AtZEff=  -0.0000000  -0.0000000  -0.0000000  -0.0000000  -0.0000000  -0.0000000  -0.0000000
 NQMom=    0.0000000   0.0000000   0.0000000   0.0000000   2.0440000   0.0000000   0.0000000
 NMagM=    0.0000000   0.0000000   0.0000000   2.7928460   0.4037610   2.7928460   2.7928460
 AtZNuc=   6.0000000   8.0000000   8.0000000   1.0000000   7.0000000   1.0000000   1.0000000
 Leave Link  101 at Mon Jan 11 16:49:55 2021, MaxMem=  8053063680 cpu:               7.9 elap:               0.2
 (Enter /home/share/software/programs/Gaussian/g16/l202.exe)
                          Input orientation:                          
 ---------------------------------------------------------------------
 Center     Atomic      Atomic             Coordinates (Angstroms)
 Number     Number       Type             X           Y           Z
 ---------------------------------------------------------------------
      1          6           0        0.810573   -2.417194    0.145998
      2          1           0        1.209411   -2.397196    1.165464
      3          1           0        1.645528   -2.180801   -0.518719
      4          6           0       -0.244629   -1.316434    0.054681
      5          8           0       -1.445429   -1.552638    0.045526
      6          7           0        0.240841   -0.050733    0.017368
      7          1           0        1.231149    0.139037    0.016258
      8          6           0       -0.644639    1.082242    0.003808
      9          1           0       -1.303441    1.069005   -0.868967
     10          1           0       -1.297019    1.096219    0.881600
     11          6           0        0.171426    2.346529   -0.019204
     12          8           0        1.378799    2.391939   -0.023237
     13          8           0       -0.615045    3.435763   -0.034876
     14          1           0       -0.028814    4.206630   -0.048741
     15          7           0        0.320461   -3.749249   -0.145660
     16          1           0       -0.533909   -3.902256    0.380002
     17          1           0        0.044999   -3.802127   -1.119862
 ---------------------------------------------------------------------
                    Distance matrix (angstroms):
                    1          2          3          4          5
     1  C    0.000000
     2  H    1.094889   0.000000
     3  H    1.093106   1.753139   0.000000
     4  C    1.527568   2.125116   2.156064   0.000000
     5  O    2.418077   3.002618   3.204212   1.223845   0.000000
     6  N    2.437474   2.786062   2.607245   1.356124   2.258322
     7  H    2.593845   2.784533   2.416518   2.073112   3.166495
     8  C    3.792613   4.110162   4.020616   2.432333   2.754196
     9  H    4.201523   4.740030   4.402310   2.768488   2.780192
    10  H    4.162586   4.308912   4.621508   2.759024   2.781634
    11  C    4.809247   4.998378   4.787401   3.687256   4.221601
    12  O    4.845542   4.937359   4.607233   4.048904   4.851874
    13  O    6.026791   6.228392   6.073721   4.767453   5.057682
    14  H    6.679636   6.827738   6.619938   5.528246   5.931682
    15  N    1.449015   2.082625   2.086865   2.505604   2.824893
    16  H    2.016878   2.433376   2.919084   2.622211   2.542331
    17  H    2.026461   2.924449   2.356218   2.764436   2.939338
                    6          7          8          9         10
     6  N    0.000000
     7  H    1.008327   0.000000
     8  C    1.438016   2.099612   0.000000
     9  H    2.103381   2.841234   1.093587   0.000000
    10  H    2.104141   2.838423   1.093761   1.750790   0.000000
    11  C    2.398546   2.448937   1.504963   2.128238   2.128627
    12  O    2.695041   2.258081   2.410464   3.108026   3.107672
    13  O    3.590393   3.778816   2.354025   2.602141   2.603552
    14  H    4.266406   4.258761   3.184934   3.484557   3.485475
    15  N    3.702963   3.996791   4.929205   5.135738   5.210572
    16  H    3.945373   4.424905   4.999900   5.183198   5.081209
    17  H    3.924870   4.269718   5.059179   5.060550   5.458998
                   11         12         13         14         15
    11  C    0.000000
    12  O    1.208233   0.000000
    13  O    1.343582   2.250582   0.000000
    14  H    1.871081   2.296765   0.968553   0.000000
    15  N    6.098911   6.232917   7.246506   7.964132   0.000000
    16  H    6.301125   6.590747   7.350186   8.135906   1.014731
    17  H    6.247672   6.430246   7.348463   8.080405   1.013778
                   16         17
    16  H    0.000000
    17  H    1.610824   0.000000
 Stoichiometry    C4H8N2O3
 Framework group  C1[X(C4H8N2O3)]
 Deg. of freedom    45
 Full point group                 C1      NOp   1
 Largest Abelian subgroup         C1      NOp   1
 Largest concise Abelian subgroup C1      NOp   1
                         Standard orientation:                         
 ---------------------------------------------------------------------
 Center     Atomic      Atomic             Coordinates (Angstroms)
 Number     Number       Type             X           Y           Z
 ---------------------------------------------------------------------
      1          6           0        2.417194    0.810573    0.145998
      2          1           0        2.397196    1.209411    1.165464
      3          1           0        2.180801    1.645528   -0.518719
      4          6           0        1.316434   -0.244629    0.054681
      5          8           0        1.552638   -1.445429    0.045526
      6          7           0        0.050733    0.240841    0.017368
      7          1           0       -0.139037    1.231149    0.016258
      8          6           0       -1.082242   -0.644639    0.003808
      9          1           0       -1.069005   -1.303441   -0.868967
     10          1           0       -1.096219   -1.297019    0.881600
     11          6           0       -2.346529    0.171426   -0.019204
     12          8           0       -2.391939    1.378799   -0.023237
     13          8           0       -3.435763   -0.615045   -0.034876
     14          1           0       -4.206630   -0.028814   -0.048741
     15          7           0        3.749249    0.320461   -0.145660
     16          1           0        3.902256   -0.533909    0.380002
     17          1           0        3.802127    0.044999   -1.119862
 ---------------------------------------------------------------------
 Rotational constants (GHZ):           5.0205626           0.6715059           0.5996705
 Leave Link  202 at Mon Jan 11 16:49:55 2021, MaxMem=  8053063680 cpu:               2.5 elap:               0.1
 (Enter /home/share/software/programs/Gaussian/g16/l301.exe)
 General basis read from cards:  (5D, 7F)
 Centers:       2      3      7      9     10     14     16     17
 cc-pVTZ
 ****
 Centers:       1      4      8     11
 S 10 1.00
     Exponent=  8.2360000000D+03 Coefficients=  5.3100000000D-04
     Exponent=  1.2350000000D+03 Coefficients=  4.1080000000D-03
     Exponent=  2.8080000000D+02 Coefficients=  2.1087000000D-02
     Exponent=  7.9270000000D+01 Coefficients=  8.1853000000D-02
     Exponent=  2.5590000000D+01 Coefficients=  2.3481700000D-01
     Exponent=  8.9970000000D+00 Coefficients=  4.3440100000D-01
     Exponent=  3.3190000000D+00 Coefficients=  3.4612900000D-01
     Exponent=  9.0590000000D-01 Coefficients=  3.9378000000D-02
     Exponent=  3.6430000000D-01 Coefficients= -8.9830000000D-03
     Exponent=  1.2850000000D-01 Coefficients=  2.3850000000D-03
 S 10 1.00
     Exponent=  8.2360000000D+03 Coefficients= -1.1300000000D-04
     Exponent=  1.2350000000D+03 Coefficients= -8.7800000000D-04
     Exponent=  2.8080000000D+02 Coefficients= -4.5400000000D-03
     Exponent=  7.9270000000D+01 Coefficients= -1.8133000000D-02
     Exponent=  2.5590000000D+01 Coefficients= -5.5760000000D-02
     Exponent=  8.9970000000D+00 Coefficients= -1.2689500000D-01
     Exponent=  3.3190000000D+00 Coefficients= -1.7035200000D-01
     Exponent=  9.0590000000D-01 Coefficients=  1.4038200000D-01
     Exponent=  3.6430000000D-01 Coefficients=  5.9868400000D-01
     Exponent=  1.2850000000D-01 Coefficients=  3.9538900000D-01
 S 1 1.00
     Exponent=  1.1876000000D+01 Coefficients=  1.0000000000D+00
 S 1 1.00
     Exponent=  4.2920000000D+00 Coefficients=  1.0000000000D+00
 S 1 1.00
     Exponent=  9.0590000000D-01 Coefficients=  1.0000000000D+00
 S 1 1.00
     Exponent=  1.2850000000D-01 Coefficients=  1.0000000000D+00
 P 5 1.00
     Exponent=  1.8710000000D+01 Coefficients=  1.4031000000D-02
     Exponent=  4.1330000000D+00 Coefficients=  8.6866000000D-02
     Exponent=  1.2000000000D+00 Coefficients=  2.9021600000D-01
     Exponent=  3.8270000000D-01 Coefficients=  5.0100800000D-01
     Exponent=  1.2090000000D-01 Coefficients=  3.4340600000D-01
 P 1 1.00
     Exponent=  3.3190000000D+01 Coefficients=  1.0000000000D+00
 P 1 1.00
     Exponent=  8.7780000000D+00 Coefficients=  1.0000000000D+00
 P 1 1.00
     Exponent=  3.8270000000D-01 Coefficients=  1.0000000000D+00
 P 1 1.00
     Exponent=  1.2090000000D-01 Coefficients=  1.0000000000D+00
 D 1 1.00
     Exponent=  1.4839000000D+01 Coefficients=  1.0000000000D+00
 D 1 1.00
     Exponent=  1.0970000000D+00 Coefficients=  1.0000000000D+00
 D 1 1.00
     Exponent=  3.1800000000D-01 Coefficients=  1.0000000000D+00
 F 1 1.00
     Exponent=  7.6100000000D-01 Coefficients=  1.0000000000D+00
 ****
 Centers:       6     15
 S 10 1.00
     Exponent=  1.1420000000D+04 Coefficients=  5.2300000000D-04
     Exponent=  1.7120000000D+03 Coefficients=  4.0450000000D-03
     Exponent=  3.8930000000D+02 Coefficients=  2.0775000000D-02
     Exponent=  1.1000000000D+02 Coefficients=  8.0727000000D-02
     Exponent=  3.5570000000D+01 Coefficients=  2.3307400000D-01
     Exponent=  1.2540000000D+01 Coefficients=  4.3350100000D-01
     Exponent=  4.6440000000D+00 Coefficients=  3.4747200000D-01
     Exponent=  1.2930000000D+00 Coefficients=  4.1262000000D-02
     Exponent=  5.1180000000D-01 Coefficients= -8.5080000000D-03
     Exponent=  1.7870000000D-01 Coefficients=  2.3840000000D-03
 S 10 1.00
     Exponent=  1.1420000000D+04 Coefficients= -1.1500000000D-04
     Exponent=  1.7120000000D+03 Coefficients= -8.9500000000D-04
     Exponent=  3.8930000000D+02 Coefficients= -4.6240000000D-03
     Exponent=  1.1000000000D+02 Coefficients= -1.8528000000D-02
     Exponent=  3.5570000000D+01 Coefficients= -5.7339000000D-02
     Exponent=  1.2540000000D+01 Coefficients= -1.3207600000D-01
     Exponent=  4.6440000000D+00 Coefficients= -1.7251000000D-01
     Exponent=  1.2930000000D+00 Coefficients=  1.5181400000D-01
     Exponent=  5.1180000000D-01 Coefficients=  5.9994400000D-01
     Exponent=  1.7870000000D-01 Coefficients=  3.8746200000D-01
 S 1 1.00
     Exponent=  1.6201000000D+01 Coefficients=  1.0000000000D+00
 S 1 1.00
     Exponent=  5.9520000000D+00 Coefficients=  1.0000000000D+00
 S 1 1.00
     Exponent=  1.2930000000D+00 Coefficients=  1.0000000000D+00
 S 1 1.00
     Exponent=  1.7870000000D-01 Coefficients=  1.0000000000D+00
 P 5 1.00
     Exponent=  2.6630000000D+01 Coefficients=  1.4670000000D-02
     Exponent=  5.9480000000D+00 Coefficients=  9.1764000000D-02
     Exponent=  1.7420000000D+00 Coefficients=  2.9868300000D-01
     Exponent=  5.5500000000D-01 Coefficients=  4.9848700000D-01
     Exponent=  1.7250000000D-01 Coefficients=  3.3702300000D-01
 P 1 1.00
     Exponent=  4.4849000000D+01 Coefficients=  1.0000000000D+00
 P 1 1.00
     Exponent=  1.1871000000D+01 Coefficients=  1.0000000000D+00
 P 1 1.00
     Exponent=  5.5500000000D-01 Coefficients=  1.0000000000D+00
 P 1 1.00
     Exponent=  1.7250000000D-01 Coefficients=  1.0000000000D+00
 D 1 1.00
     Exponent=  1.4200000000D+01 Coefficients=  1.0000000000D+00
 D 1 1.00
     Exponent=  1.6540000000D+00 Coefficients=  1.0000000000D+00
 D 1 1.00
     Exponent=  4.6900000000D-01 Coefficients=  1.0000000000D+00
 F 1 1.00
     Exponent=  1.0930000000D+00 Coefficients=  1.0000000000D+00
 ****
 Centers:       5     12     13
 S 10 1.00
     Exponent=  1.5330000000D+04 Coefficients=  5.0800000000D-04
     Exponent=  2.2990000000D+03 Coefficients=  3.9290000000D-03
     Exponent=  5.2240000000D+02 Coefficients=  2.0243000000D-02
     Exponent=  1.4730000000D+02 Coefficients=  7.9181000000D-02
     Exponent=  4.7550000000D+01 Coefficients=  2.3068700000D-01
     Exponent=  1.6760000000D+01 Coefficients=  4.3311800000D-01
     Exponent=  6.2070000000D+00 Coefficients=  3.5026000000D-01
     Exponent=  1.7520000000D+00 Coefficients=  4.2728000000D-02
     Exponent=  6.8820000000D-01 Coefficients= -8.1540000000D-03
     Exponent=  2.3840000000D-01 Coefficients=  2.3810000000D-03
 S 10 1.00
     Exponent=  1.5330000000D+04 Coefficients= -1.1500000000D-04
     Exponent=  2.2990000000D+03 Coefficients= -8.9500000000D-04
     Exponent=  5.2240000000D+02 Coefficients= -4.6360000000D-03
     Exponent=  1.4730000000D+02 Coefficients= -1.8724000000D-02
     Exponent=  4.7550000000D+01 Coefficients= -5.8463000000D-02
     Exponent=  1.6760000000D+01 Coefficients= -1.3646300000D-01
     Exponent=  6.2070000000D+00 Coefficients= -1.7574000000D-01
     Exponent=  1.7520000000D+00 Coefficients=  1.6093400000D-01
     Exponent=  6.8820000000D-01 Coefficients=  6.0341800000D-01
     Exponent=  2.3840000000D-01 Coefficients=  3.7876500000D-01
 S 1 1.00
     Exponent=  2.1032000000D+01 Coefficients=  1.0000000000D+00
 S 1 1.00
     Exponent=  7.8450000000D+00 Coefficients=  1.0000000000D+00
 S 1 1.00
     Exponent=  1.7520000000D+00 Coefficients=  1.0000000000D+00
 S 1 1.00
     Exponent=  2.3840000000D-01 Coefficients=  1.0000000000D+00
 P 5 1.00
     Exponent=  3.4460000000D+01 Coefficients=  1.5928000000D-02
     Exponent=  7.7490000000D+00 Coefficients=  9.9740000000D-02
     Exponent=  2.2800000000D+00 Coefficients=  3.1049200000D-01
     Exponent=  7.1560000000D-01 Coefficients=  4.9102600000D-01
     Exponent=  2.1400000000D-01 Coefficients=  3.3633700000D-01
 P 1 1.00
     Exponent=  5.7437000000D+01 Coefficients=  1.0000000000D+00
 P 1 1.00
     Exponent=  1.5159000000D+01 Coefficients=  1.0000000000D+00
 P 1 1.00
     Exponent=  7.1560000000D-01 Coefficients=  1.0000000000D+00
 P 1 1.00
     Exponent=  2.1400000000D-01 Coefficients=  1.0000000000D+00
 D 1 1.00
     Exponent=  1.5858000000D+01 Coefficients=  1.0000000000D+00
 D 1 1.00
     Exponent=  2.3140000000D+00 Coefficients=  1.0000000000D+00
 D 1 1.00
     Exponent=  6.4500000000D-01 Coefficients=  1.0000000000D+00
 F 1 1.00
     Exponent=  1.4280000000D+00 Coefficients=  1.0000000000D+00
 ****
 Ernie: Thresh=  0.10000D-02 Tol=  0.10000D-05 Strict=F.
 Ernie:  63 primitive shells out of 397 were deleted.
 There are   561 symmetry adapted cartesian basis functions of A   symmetry.
 There are   499 symmetry adapted basis functions of A   symmetry.
   499 basis functions,   784 primitive gaussians,   561 cartesian basis functions
    35 alpha electrons       35 beta electrons
       nuclear repulsion energy       449.7259239000 Hartrees.
 IExCor=    0 DFT=F Ex=HF Corr=None ExCW=0 ScaHFX=  1.000000
 ScaDFX=  1.000000  1.000000  1.000000  1.000000 ScalE2=  1.000000  1.000000
 IRadAn=      5 IRanWt=     -1 IRanGd=            0 ICorTp=0 IEmpDi=  4
 NAtoms=   17 NActive=   17 NUniq=   17 SFac= 1.00D+00 NAtFMM=   60 NAOKFM=F Big=F
 Integral buffers will be    131072 words long.
 Raffenetti 1 integral format.
 Two-electron integral symmetry is turned on.
 Leave Link  301 at Mon Jan 11 16:49:56 2021, MaxMem=  8053063680 cpu:              12.5 elap:               0.3
 (Enter /home/share/software/programs/Gaussian/g16/l302.exe)
 NPDir=0 NMtPBC=     1 NCelOv=     1 NCel=       1 NClECP=     1 NCelD=      1
         NCelK=      1 NCelE2=     1 NClLst=     1 CellRange=     0.0.
 One-electron integrals computed using PRISM.
 One-electron integral symmetry used in STVInt
 NBasis=   499 RedAO= T EigKep=  3.31D-04  NBF=   499
 NBsUse=   499 1.00D-06 EigRej= -1.00D+00 NBFU=   499
 Leave Link  302 at Mon Jan 11 16:49:56 2021, MaxMem=  8053063680 cpu:              39.7 elap:               0.7
 (Enter /home/share/software/programs/Gaussian/g16/l303.exe)
 DipDrv:  MaxL=1.
 Leave Link  303 at Mon Jan 11 16:49:57 2021, MaxMem=  8053063680 cpu:               8.6 elap:               0.2
 (Enter /home/share/software/programs/Gaussian/g16/l401.exe)
 ExpMin= 1.03D-01 ExpMax= 1.53D+04 ExpMxC= 5.22D+02 IAcc=3 IRadAn=         5 AccDes= 0.00D+00
 Harris functional with IExCor=  205 and IRadAn=       5 diagonalized for initial guess.
 HarFok:  IExCor=  205 AccDes= 0.00D+00 IRadAn=         5 IDoV= 1 UseB2=F ITyADJ=14
 ICtDFT=  3500011 ScaDFX=  1.000000  1.000000  1.000000  1.000000
 FoFCou: FMM=F IPFlag=           0 FMFlag=      100000 FMFlg1=           0
         NFxFlg=           0 DoJE=T BraDBF=F KetDBF=T FulRan=T
         wScrn=  0.000000 ICntrl=       500 IOpCl=  0 I1Cent=   200000004 NGrid=           0
         NMat0=    1 NMatS0=      1 NMatT0=    0 NMatD0=    1 NMtDS0=    0 NMtDT0=    0
 Petite list used in FoFCou.
 Harris En= -490.324707867635    
 JPrj=0 DoOrth=F DoCkMO=F.
 Leave Link  401 at Mon Jan 11 16:49:57 2021, MaxMem=  8053063680 cpu:              48.7 elap:               0.8
 (Enter /home/share/software/programs/Gaussian/g16/l502.exe)
 Integral symmetry usage will be decided dynamically.
 Closed shell SCF:
 Using DIIS extrapolation, IDIIS=  1040.
 NGot=  8053063680 LenX=  8052393202 LenY=  8052077920
 Requested convergence on RMS density matrix=1.00D-08 within 128 cycles.
 Requested convergence on MAX density matrix=1.00D-06.
 Requested convergence on             energy=1.00D-06.
 No special actions if energy rises.
 Fock matrices will be formed incrementally for  20 cycles.
 Integral accuracy reduced to 1.0D-05 until final iterations.

 Cycle   1  Pass 0  IDiag  1:
 FoFJK:  IHMeth= 1 ICntrl=       0 DoSepK=F KAlg= 0 I1Cent=           0 FoldK=F
 IRaf= 820000000 NMat=       1 IRICut=       1 DoRegI=T DoRafI=F ISym2E= 0 IDoP0=0 IntGTp=1.
 FoFCou: FMM=F IPFlag=           0 FMFlag=      100000 FMFlg1=           0
         NFxFlg=           0 DoJE=F BraDBF=F KetDBF=F FulRan=T
         wScrn=  0.000000 ICntrl=         0 IOpCl=  0 I1Cent=           0 NGrid=           0
         NMat0=    1 NMatS0=      1 NMatT0=    0 NMatD0=    1 NMtDS0=    0 NMtDT0=    0
 Symmetry not used in FoFCou.
 E= -489.434517804926    
 DIIS: error= 3.82D-02 at cycle   1 NSaved=   1.
 NSaved= 1 IEnMin= 1 EnMin= -489.434517804926     IErMin= 1 ErrMin= 3.82D-02
 ErrMax= 3.82D-02  0.00D+00 EMaxC= 1.00D-01 BMatC= 1.15D+00 BMatP= 1.15D+00
 IDIUse=3 WtCom= 6.18D-01 WtEn= 3.82D-01
 Coeff-Com:  0.100D+01
 Coeff-En:   0.100D+01
 Coeff:      0.100D+01
 Gap=     0.536 Goal=   None    Shift=    0.000
 GapD=    0.536 DampG=2.000 DampE=0.500 DampFc=1.0000 IDamp=-1.
 RMSDP=2.92D-03 MaxDP=2.95D-01              OVMax= 1.35D-01

 Cycle   2  Pass 0  IDiag  1:
 RMSU=  2.31D-03    CP:  8.41D-01
 E= -489.754398618094     Delta-E=       -0.319880813168 Rises=F Damp=F
 DIIS: error= 1.18D-02 at cycle   2 NSaved=   2.
 NSaved= 2 IEnMin= 2 EnMin= -489.754398618094     IErMin= 2 ErrMin= 1.18D-02
 ErrMax= 1.18D-02  0.00D+00 EMaxC= 1.00D-01 BMatC= 1.29D-01 BMatP= 1.15D+00
 IDIUse=3 WtCom= 8.82D-01 WtEn= 1.18D-01
 Coeff-Com:  0.165D+00 0.835D+00
 Coeff-En:   0.000D+00 0.100D+01
 Coeff:      0.146D+00 0.854D+00
 Gap=     0.560 Goal=   None    Shift=    0.000
 RMSDP=1.13D-03 MaxDP=1.40D-01 DE=-3.20D-01 OVMax= 5.55D-02

 Cycle   3  Pass 0  IDiag  1:
 RMSU=  6.70D-04    CP:  8.75D-01  6.39D-01
 E= -489.823639994539     Delta-E=       -0.069241376445 Rises=F Damp=F
 DIIS: error= 6.00D-03 at cycle   3 NSaved=   3.
 NSaved= 3 IEnMin= 3 EnMin= -489.823639994539     IErMin= 3 ErrMin= 6.00D-03
 ErrMax= 6.00D-03  0.00D+00 EMaxC= 1.00D-01 BMatC= 2.41D-02 BMatP= 1.29D-01
 IDIUse=3 WtCom= 9.40D-01 WtEn= 6.00D-02
 Coeff-Com: -0.245D-01 0.276D+00 0.748D+00
 Coeff-En:   0.000D+00 0.000D+00 0.100D+01
 Coeff:     -0.231D-01 0.260D+00 0.763D+00
 Gap=     0.544 Goal=   None    Shift=    0.000
 RMSDP=3.34D-04 MaxDP=5.97D-02 DE=-6.92D-02 OVMax= 2.93D-02

 Cycle   4  Pass 0  IDiag  1:
 RMSU=  1.94D-04    CP:  8.66D-01  7.24D-01  7.59D-01
 E= -489.838505442622     Delta-E=       -0.014865448083 Rises=F Damp=F
 DIIS: error= 1.27D-03 at cycle   4 NSaved=   4.
 NSaved= 4 IEnMin= 4 EnMin= -489.838505442622     IErMin= 4 ErrMin= 1.27D-03
 ErrMax= 1.27D-03  0.00D+00 EMaxC= 1.00D-01 BMatC= 8.20D-04 BMatP= 2.41D-02
 IDIUse=3 WtCom= 9.87D-01 WtEn= 1.27D-02
 Coeff-Com: -0.108D-01 0.563D-01 0.235D+00 0.720D+00
 Coeff-En:   0.000D+00 0.000D+00 0.000D+00 0.100D+01
 Coeff:     -0.107D-01 0.556D-01 0.232D+00 0.723D+00
 Gap=     0.528 Goal=   None    Shift=    0.000
 RMSDP=7.54D-05 MaxDP=9.89D-03 DE=-1.49D-02 OVMax= 5.23D-03

 Cycle   5  Pass 0  IDiag  1:
 RMSU=  4.28D-05    CP:  8.65D-01  7.21D-01  8.45D-01  9.16D-01
 E= -489.839221485361     Delta-E=       -0.000716042739 Rises=F Damp=F
 DIIS: error= 4.22D-04 at cycle   5 NSaved=   5.
 NSaved= 5 IEnMin= 5 EnMin= -489.839221485361     IErMin= 5 ErrMin= 4.22D-04
 ErrMax= 4.22D-04  0.00D+00 EMaxC= 1.00D-01 BMatC= 5.04D-05 BMatP= 8.20D-04
 IDIUse=3 WtCom= 9.96D-01 WtEn= 4.22D-03
 Coeff-Com:  0.233D-02-0.257D-01-0.770D-01 0.699D-02 0.109D+01
 Coeff-En:   0.000D+00 0.000D+00 0.000D+00 0.000D+00 0.100D+01
 Coeff:      0.232D-02-0.256D-01-0.767D-01 0.696D-02 0.109D+01
 Gap=     0.530 Goal=   None    Shift=    0.000
 RMSDP=3.67D-05 MaxDP=4.51D-03 DE=-7.16D-04 OVMax= 4.77D-03

 Cycle   6  Pass 0  IDiag  1:
 RMSU=  1.70D-05    CP:  8.65D-01  7.19D-01  8.66D-01  1.06D+00  1.21D+00
 E= -489.839329903178     Delta-E=       -0.000108417817 Rises=F Damp=F
 DIIS: error= 1.38D-04 at cycle   6 NSaved=   6.
 NSaved= 6 IEnMin= 6 EnMin= -489.839329903178     IErMin= 6 ErrMin= 1.38D-04
 ErrMax= 1.38D-04  0.00D+00 EMaxC= 1.00D-01 BMatC= 8.27D-06 BMatP= 5.04D-05
 IDIUse=3 WtCom= 9.99D-01 WtEn= 1.38D-03
 Coeff-Com:  0.154D-02-0.113D-01-0.389D-01-0.861D-01 0.199D+00 0.936D+00
 Coeff-En:   0.000D+00 0.000D+00 0.000D+00 0.000D+00 0.000D+00 0.100D+01
 Coeff:      0.154D-02-0.113D-01-0.388D-01-0.859D-01 0.199D+00 0.936D+00
 Gap=     0.530 Goal=   None    Shift=    0.000
 RMSDP=1.47D-05 MaxDP=1.56D-03 DE=-1.08D-04 OVMax= 1.54D-03

 Cycle   7  Pass 0  IDiag  1:
 RMSU=  5.30D-06    CP:  8.65D-01  7.17D-01  8.74D-01  1.10D+00  1.41D+00
                    CP:  1.10D+00
 E= -489.839345699575     Delta-E=       -0.000015796397 Rises=F Damp=F
 DIIS: error= 6.12D-05 at cycle   7 NSaved=   7.
 NSaved= 7 IEnMin= 7 EnMin= -489.839345699575     IErMin= 7 ErrMin= 6.12D-05
 ErrMax= 6.12D-05  0.00D+00 EMaxC= 1.00D-01 BMatC= 1.06D-06 BMatP= 8.27D-06
 IDIUse=1 WtCom= 1.00D+00 WtEn= 0.00D+00
 Coeff-Com: -0.235D-03 0.292D-02 0.108D-01-0.108D-01-0.126D+00-0.548D-02
 Coeff-Com:  0.113D+01
 Coeff:     -0.235D-03 0.292D-02 0.108D-01-0.108D-01-0.126D+00-0.548D-02
 Coeff:      0.113D+01
 Gap=     0.530 Goal=   None    Shift=    0.000
 RMSDP=5.88D-06 MaxDP=7.94D-04 DE=-1.58D-05 OVMax= 8.85D-04

 Initial convergence to 1.0D-05 achieved.  Increase integral accuracy.
 Cycle   8  Pass 1  IDiag  1:
 E= -489.839360545872     Delta-E=       -0.000014846297 Rises=F Damp=F
 DIIS: error= 4.28D-05 at cycle   1 NSaved=   1.
 NSaved= 1 IEnMin= 1 EnMin= -489.839360545872     IErMin= 1 ErrMin= 4.28D-05
 ErrMax= 4.28D-05  0.00D+00 EMaxC= 1.00D-01 BMatC= 6.63D-07 BMatP= 6.63D-07
 IDIUse=1 WtCom= 1.00D+00 WtEn= 0.00D+00
 Coeff-Com:  0.100D+01
 Coeff:      0.100D+01
 Gap=     0.531 Goal=   None    Shift=    0.000
 RMSDP=5.88D-06 MaxDP=7.94D-04 DE=-1.48D-05 OVMax= 1.63D-04

 Cycle   9  Pass 1  IDiag  1:
 RMSU=  1.09D-05    CP:  1.00D+00
 E= -489.839361061958     Delta-E=       -0.000000516087 Rises=F Damp=F
 DIIS: error= 1.25D-05 at cycle   2 NSaved=   2.
 NSaved= 2 IEnMin= 2 EnMin= -489.839361061958     IErMin= 2 ErrMin= 1.25D-05
 ErrMax= 1.25D-05  0.00D+00 EMaxC= 1.00D-01 BMatC= 4.03D-08 BMatP= 6.63D-07
 IDIUse=1 WtCom= 1.00D+00 WtEn= 0.00D+00
 Coeff-Com: -0.113D-01 0.101D+01
 Coeff:     -0.113D-01 0.101D+01
 Gap=     0.530 Goal=   None    Shift=    0.000
 RMSDP=1.01D-06 MaxDP=1.96D-04 DE=-5.16D-07 OVMax= 1.37D-04

 Cycle  10  Pass 1  IDiag  1:
 RMSU=  8.02D-07    CP:  1.00D+00  1.06D+00
 E= -489.839361157804     Delta-E=       -0.000000095845 Rises=F Damp=F
 DIIS: error= 5.66D-06 at cycle   3 NSaved=   3.
 NSaved= 3 IEnMin= 3 EnMin= -489.839361157804     IErMin= 3 ErrMin= 5.66D-06
 ErrMax= 5.66D-06  0.00D+00 EMaxC= 1.00D-01 BMatC= 2.11D-08 BMatP= 4.03D-08
 IDIUse=1 WtCom= 1.00D+00 WtEn= 0.00D+00
 Coeff-Com: -0.568D-01 0.306D+00 0.750D+00
 Coeff:     -0.568D-01 0.306D+00 0.750D+00
 Gap=     0.531 Goal=   None    Shift=    0.000
 RMSDP=4.51D-07 MaxDP=7.60D-05 DE=-9.58D-08 OVMax= 3.73D-05

 Cycle  11  Pass 1  IDiag  1:
 RMSU=  4.03D-07    CP:  1.00D+00  1.07D+00  1.22D+00
 E= -489.839361188945     Delta-E=       -0.000000031141 Rises=F Damp=F
 DIIS: error= 4.51D-06 at cycle   4 NSaved=   4.
 NSaved= 4 IEnMin= 4 EnMin= -489.839361188945     IErMin= 4 ErrMin= 4.51D-06
 ErrMax= 4.51D-06  0.00D+00 EMaxC= 1.00D-01 BMatC= 4.11D-09 BMatP= 2.11D-08
 IDIUse=1 WtCom= 1.00D+00 WtEn= 0.00D+00
 Coeff-Com:  0.913D-02-0.449D+00-0.225D+00 0.166D+01
 Coeff:      0.913D-02-0.449D+00-0.225D+00 0.166D+01
 Gap=     0.531 Goal=   None    Shift=    0.000
 RMSDP=5.91D-07 MaxDP=1.10D-04 DE=-3.11D-08 OVMax= 9.08D-05

 Cycle  12  Pass 1  IDiag  1:
 RMSU=  1.86D-07    CP:  1.00D+00  1.07D+00  1.78D+00  1.83D+00
 E= -489.839361207272     Delta-E=       -0.000000018327 Rises=F Damp=F
 DIIS: error= 4.38D-07 at cycle   5 NSaved=   5.
 NSaved= 5 IEnMin= 5 EnMin= -489.839361207272     IErMin= 5 ErrMin= 4.38D-07
 ErrMax= 4.38D-07  0.00D+00 EMaxC= 1.00D-01 BMatC= 1.81D-10 BMatP= 4.11D-09
 IDIUse=1 WtCom= 1.00D+00 WtEn= 0.00D+00
 Coeff-Com:  0.470D-02-0.148D+00-0.105D+00 0.507D+00 0.742D+00
 Coeff:      0.470D-02-0.148D+00-0.105D+00 0.507D+00 0.742D+00
 Gap=     0.531 Goal=   None    Shift=    0.000
 RMSDP=6.63D-08 MaxDP=7.39D-06 DE=-1.83D-08 OVMax= 5.24D-06

 Cycle  13  Pass 1  IDiag  1:
 RMSU=  3.59D-08    CP:  1.00D+00  1.07D+00  1.81D+00  1.93D+00  1.15D+00
 E= -489.839361207512     Delta-E=       -0.000000000240 Rises=F Damp=F
 DIIS: error= 1.61D-07 at cycle   6 NSaved=   6.
 NSaved= 6 IEnMin= 6 EnMin= -489.839361207512     IErMin= 6 ErrMin= 1.61D-07
 ErrMax= 1.61D-07  0.00D+00 EMaxC= 1.00D-01 BMatC= 1.18D-11 BMatP= 1.81D-10
 IDIUse=1 WtCom= 1.00D+00 WtEn= 0.00D+00
 Coeff-Com: -0.133D-02 0.640D-01 0.312D-01-0.228D+00-0.239D-01 0.116D+01
 Coeff:     -0.133D-02 0.640D-01 0.312D-01-0.228D+00-0.239D-01 0.116D+01
 Gap=     0.531 Goal=   None    Shift=    0.000
 RMSDP=3.03D-08 MaxDP=3.57D-06 DE=-2.40D-10 OVMax= 1.47D-06

 Cycle  14  Pass 1  IDiag  1:
 RMSU=  1.17D-08    CP:  1.00D+00  1.07D+00  1.81D+00  1.95D+00  1.26D+00
                    CP:  1.19D+00
 E= -489.839361207522     Delta-E=       -0.000000000010 Rises=F Damp=F
 DIIS: error= 3.43D-08 at cycle   7 NSaved=   7.
 NSaved= 7 IEnMin= 7 EnMin= -489.839361207522     IErMin= 7 ErrMin= 3.43D-08
 ErrMax= 3.43D-08  0.00D+00 EMaxC= 1.00D-01 BMatC= 9.64D-13 BMatP= 1.18D-11
 IDIUse=1 WtCom= 1.00D+00 WtEn= 0.00D+00
 Coeff-Com: -0.552D-03 0.209D-01 0.119D-01-0.720D-01-0.604D-01 0.187D+00
 Coeff-Com:  0.913D+00
 Coeff:     -0.552D-03 0.209D-01 0.119D-01-0.720D-01-0.604D-01 0.187D+00
 Coeff:      0.913D+00
 Gap=     0.531 Goal=   None    Shift=    0.000
 RMSDP=5.02D-09 MaxDP=4.45D-07 DE=-1.02D-11 OVMax= 3.59D-07

 SCF Done:  E(RHF) =  -489.839361208     A.U. after   14 cycles
            NFock= 14  Conv=0.50D-08     -V/T= 2.0011
 KE= 4.892782088999D+02 PE=-2.051736004329D+03 EE= 6.228925103212D+02
 Leave Link  502 at Mon Jan 11 16:50:26 2021, MaxMem=  8053063680 cpu:            1805.2 elap:              28.3
 (Enter /home/share/software/programs/Gaussian/g16/l801.exe)
 Range of M.O.s used for correlation:     1   499
 NBasis=   499 NAE=    35 NBE=    35 NFC=     0 NFV=     0
 NROrb=    499 NOA=    35 NOB=    35 NVA=   464 NVB=   464

 **** Warning!!: The largest alpha MO coefficient is  0.12626743D+02

 Leave Link  801 at Mon Jan 11 16:50:26 2021, MaxMem=  8053063680 cpu:               4.2 elap:               0.1
 (Enter /home/share/software/programs/Gaussian/g16/l906.exe)
 FulOut=F Deriv=F AODrv=F NAtomX=    17
   MMem=          13  MDisk=          35 MDiskD=          35
  W3Min=     9110640 MinDsk=    10260769 NBas6D=         561
 NBas2D=      158754    NTT=      157641    LW2=     2000000
    MDV=  8051835686 MDiskM=       71745 NBas2p=      124863
 Disk-based method using OVN memory for 35 occupieds at a time.
 Estimated scratch disk usage=  6466528400 words.
 IMap=   1   2   3   4   5   6   7   8   9  10  11  12  13  14  15  16  17  18  19  20
 IMap=  21  22  23  24  25  26  27  28  29  30  31  32  33  34  35
 Actual    scratch disk usage=  5069956240 words.
 JobTyp=1 Pass  1:  I=   1 to  35 NPSUse= 64 ParTrn=T ParDer=T DoDerP=F.
 (rs|ai) integrals will be sorted in core.
 Spin components of T(2) and E(2):
     alpha-alpha T2 =       0.6477641669D-01 E2=     -0.2501542035D+00
     alpha-beta  T2 =       0.3571820428D+00 E2=     -0.1730105209D+01
     beta-beta   T2 =       0.6477641669D-01 E2=     -0.2501542035D+00
 The integrals were generated   1 times.
 ANorm=    0.1219317381D+01
 E2 =    -0.2230413616D+01 EUMP2 =    -0.49206977482325D+03
 Leave Link  906 at Mon Jan 11 16:53:13 2021, MaxMem=  8053063680 cpu:           10657.4 elap:             166.7
 (Enter /home/share/software/programs/Gaussian/g16/l601.exe)
 Copying SCF densities to generalized density rwf, IOpCl= 0 IROHF=0.

 **********************************************************************

            Population analysis using the SCF Density.

 **********************************************************************

 Orbital symmetries:
       Occupied  (A) (A) (A) (A) (A) (A) (A) (A) (A) (A) (A) (A)
                 (A) (A) (A) (A) (A) (A) (A) (A) (A) (A) (A) (A)
                 (A) (A) (A) (A) (A) (A) (A) (A) (A) (A) (A)
       Virtual   (A) (A) (A) (A) (A) (A) (A) (A) (A) (A) (A) (A)
                 (A) (A) (A) (A) (A) (A) (A) (A) (A) (A) (A) (A)
                 (A) (A) (A) (A) (A) (A) (A) (A) (A) (A) (A) (A)
                 (A) (A) (A) (A) (A) (A) (A) (A) (A) (A) (A) (A)
                 (A) (A) (A) (A) (A) (A) (A) (A) (A) (A) (A) (A)
                 (A) (A) (A) (A) (A) (A) (A) (A) (A) (A) (A) (A)
                 (A) (A) (A) (A) (A) (A) (A) (A) (A) (A) (A) (A)
                 (A) (A) (A) (A) (A) (A) (A) (A) (A) (A) (A) (A)
                 (A) (A) (A) (A) (A) (A) (A) (A) (A) (A) (A) (A)
                 (A) (A) (A) (A) (A) (A) (A) (A) (A) (A) (A) (A)
                 (A) (A) (A) (A) (A) (A) (A) (A) (A) (A) (A) (A)
                 (A) (A) (A) (A) (A) (A) (A) (A) (A) (A) (A) (A)
                 (A) (A) (A) (A) (A) (A) (A) (A) (A) (A) (A) (A)
                 (A) (A) (A) (A) (A) (A) (A) (A) (A) (A) (A) (A)
                 (A) (A) (A) (A) (A) (A) (A) (A) (A) (A) (A) (A)
                 (A) (A) (A) (A) (A) (A) (A) (A) (A) (A) (A) (A)
                 (A) (A) (A) (A) (A) (A) (A) (A) (A) (A) (A) (A)
                 (A) (A) (A) (A) (A) (A) (A) (A) (A) (A) (A) (A)
                 (A) (A) (A) (A) (A) (A) (A) (A) (A) (A) (A) (A)
                 (A) (A) (A) (A) (A) (A) (A) (A) (A) (A) (A) (A)
                 (A) (A) (A) (A) (A) (A) (A) (A) (A) (A) (A) (A)
                 (A) (A) (A) (A) (A) (A) (A) (A) (A) (A) (A) (A)
                 (A) (A) (A) (A) (A) (A) (A) (A) (A) (A) (A) (A)
                 (A) (A) (A) (A) (A) (A) (A) (A) (A) (A) (A) (A)
                 (A) (A) (A) (A) (A) (A) (A) (A) (A) (A) (A) (A)
                 (A) (A) (A) (A) (A) (A) (A) (A) (A) (A) (A) (A)
                 (A) (A) (A) (A) (A) (A) (A) (A) (A) (A) (A) (A)
                 (A) (A) (A) (A) (A) (A) (A) (A) (A) (A) (A) (A)
                 (A) (A) (A) (A) (A) (A) (A) (A) (A) (A) (A) (A)
                 (A) (A) (A) (A) (A) (A) (A) (A) (A) (A) (A) (A)
                 (A) (A) (A) (A) (A) (A) (A) (A) (A) (A) (A) (A)
                 (A) (A) (A) (A) (A) (A) (A) (A) (A) (A) (A) (A)
                 (A) (A) (A) (A) (A) (A) (A) (A) (A) (A) (A) (A)
                 (A) (A) (A) (A) (A) (A) (A) (A) (A) (A) (A) (A)
                 (A) (A) (A) (A) (A) (A) (A) (A) (A) (A) (A) (A)
                 (A) (A) (A) (A) (A) (A) (A) (A) (A) (A) (A) (A)
                 (A) (A) (A) (A) (A) (A) (A) (A) (A) (A) (A) (A)
                 (A) (A) (A) (A) (A) (A) (A) (A) (A) (A) (A) (A)
                 (A) (A) (A) (A) (A) (A) (A) (A)
 The electronic state is 1-A.
 Alpha  occ. eigenvalues --  -20.63124 -20.56997 -20.52222 -15.59137 -15.54083
 Alpha  occ. eigenvalues --  -11.40816 -11.34978 -11.29593 -11.26934  -1.48844
 Alpha  occ. eigenvalues --   -1.38915  -1.38380  -1.24625  -1.18627  -1.03521
 Alpha  occ. eigenvalues --   -0.94042  -0.84047  -0.80624  -0.73102  -0.72248
 Alpha  occ. eigenvalues --   -0.69086  -0.67987  -0.67160  -0.65629  -0.61794
 Alpha  occ. eigenvalues --   -0.60299  -0.58998  -0.57553  -0.55685  -0.50925
 Alpha  occ. eigenvalues --   -0.50390  -0.48088  -0.44475  -0.40710  -0.40001
 Alpha virt. eigenvalues --    0.13050   0.14102   0.15242   0.16258   0.16636
 Alpha virt. eigenvalues --    0.17439   0.20048   0.22123   0.22582   0.25986
 Alpha virt. eigenvalues --    0.29699   0.31871   0.32913   0.34402   0.37315
 Alpha virt. eigenvalues --    0.38915   0.40183   0.43699   0.44297   0.45079
 Alpha virt. eigenvalues --    0.46286   0.49071   0.49657   0.50655   0.51658
 Alpha virt. eigenvalues --    0.54911   0.55870   0.58004   0.58318   0.59125
 Alpha virt. eigenvalues --    0.59232   0.60174   0.60926   0.61541   0.63914
 Alpha virt. eigenvalues --    0.65328   0.67101   0.67230   0.68842   0.69420
 Alpha virt. eigenvalues --    0.70056   0.71220   0.72449   0.74345   0.75284
 Alpha virt. eigenvalues --    0.76359   0.77411   0.78081   0.80645   0.81151
 Alpha virt. eigenvalues --    0.85435   0.86852   0.87569   0.89961   0.90974
 Alpha virt. eigenvalues --    0.91162   0.92668   0.95659   0.96852   0.98580
 Alpha virt. eigenvalues --    0.99913   1.00221   1.02350   1.03626   1.06138
 Alpha virt. eigenvalues --    1.10763   1.11945   1.13229   1.14918   1.15850
 Alpha virt. eigenvalues --    1.17215   1.20506   1.23378   1.24066   1.25616
 Alpha virt. eigenvalues --    1.25987   1.27667   1.30545   1.30817   1.32468
 Alpha virt. eigenvalues --    1.36024   1.36380   1.37325   1.38182   1.41040
 Alpha virt. eigenvalues --    1.43598   1.44280   1.46202   1.46949   1.48464
 Alpha virt. eigenvalues --    1.49433   1.51197   1.51857   1.52404   1.53806
 Alpha virt. eigenvalues --    1.54722   1.56684   1.59252   1.61014   1.62470
 Alpha virt. eigenvalues --    1.64074   1.68408   1.71211   1.74233   1.79147
 Alpha virt. eigenvalues --    1.80043   1.82927   1.84382   1.86649   1.88678
 Alpha virt. eigenvalues --    1.89612   1.90817   1.97428   1.99626   2.00464
 Alpha virt. eigenvalues --    2.04332   2.06888   2.10702   2.12735   2.13261
 Alpha virt. eigenvalues --    2.22716   2.23665   2.26378   2.26695   2.30529
 Alpha virt. eigenvalues --    2.32678   2.36137   2.38555   2.38662   2.43585
 Alpha virt. eigenvalues --    2.47163   2.52425   2.56168   2.59189   2.62105
 Alpha virt. eigenvalues --    2.67932   2.69922   2.72060   2.74220   2.77180
 Alpha virt. eigenvalues --    2.78993   2.80312   2.83308   2.84054   2.90213
 Alpha virt. eigenvalues --    2.91255   2.92346   2.95416   2.97950   2.98896
 Alpha virt. eigenvalues --    3.03679   3.04293   3.06745   3.09341   3.10559
 Alpha virt. eigenvalues --    3.14885   3.15877   3.16870   3.20376   3.20898
 Alpha virt. eigenvalues --    3.23631   3.24125   3.24447   3.24934   3.27890
 Alpha virt. eigenvalues --    3.28754   3.30362   3.31609   3.33097   3.35606
 Alpha virt. eigenvalues --    3.36938   3.37500   3.38869   3.39941   3.41609
 Alpha virt. eigenvalues --    3.44508   3.46346   3.48761   3.51410   3.52755
 Alpha virt. eigenvalues --    3.54073   3.54393   3.57035   3.57684   3.58940
 Alpha virt. eigenvalues --    3.60060   3.60884   3.62705   3.64138   3.67491
 Alpha virt. eigenvalues --    3.68748   3.70040   3.70433   3.72741   3.73888
 Alpha virt. eigenvalues --    3.74874   3.76699   3.77945   3.78673   3.80569
 Alpha virt. eigenvalues --    3.82669   3.83271   3.85413   3.86842   3.89274
 Alpha virt. eigenvalues --    3.90714   3.94249   3.94833   3.97746   3.99913
 Alpha virt. eigenvalues --    4.00752   4.01603   4.01762   4.03370   4.05389
 Alpha virt. eigenvalues --    4.06348   4.08828   4.10646   4.12619   4.15913
 Alpha virt. eigenvalues --    4.19510   4.21037   4.22956   4.25431   4.26005
 Alpha virt. eigenvalues --    4.26498   4.27795   4.30165   4.33507   4.34725
 Alpha virt. eigenvalues --    4.36598   4.37438   4.40002   4.41904   4.42309
 Alpha virt. eigenvalues --    4.44704   4.46638   4.48076   4.49580   4.49861
 Alpha virt. eigenvalues --    4.50908   4.52637   4.56168   4.58651   4.61592
 Alpha virt. eigenvalues --    4.64507   4.66136   4.66805   4.70648   4.72537
 Alpha virt. eigenvalues --    4.74077   4.76762   4.83365   4.85475   4.92193
 Alpha virt. eigenvalues --    4.93332   4.97148   5.00061   5.04881   5.06753
 Alpha virt. eigenvalues --    5.08234   5.12056   5.15462   5.18958   5.20685
 Alpha virt. eigenvalues --    5.21701   5.24557   5.25196   5.25802   5.30254
 Alpha virt. eigenvalues --    5.31670   5.32766   5.34278   5.38481   5.39704
 Alpha virt. eigenvalues --    5.45290   5.48104   5.51518   5.52676   5.53928
 Alpha virt. eigenvalues --    5.54520   5.59033   5.61185   5.62144   5.62967
 Alpha virt. eigenvalues --    5.66151   5.67826   5.68896   5.71968   5.77245
 Alpha virt. eigenvalues --    5.77885   5.79503   5.83544   5.88152   5.90879
 Alpha virt. eigenvalues --    5.94616   5.95440   6.01626   6.05246   6.07191
 Alpha virt. eigenvalues --    6.09597   6.13940   6.15218   6.17573   6.20211
 Alpha virt. eigenvalues --    6.21811   6.23156   6.24110   6.25163   6.26740
 Alpha virt. eigenvalues --    6.34326   6.41922   6.42976   6.48552   6.49229
 Alpha virt. eigenvalues --    6.52137   6.65795   6.68846   6.70263   6.75159
 Alpha virt. eigenvalues --    6.82614   6.88135   6.90027   6.93523   6.93799
 Alpha virt. eigenvalues --    6.98119   7.03690   7.10854   7.12483   7.18934
 Alpha virt. eigenvalues --    7.23105   7.27000   7.29799   7.32531   7.35010
 Alpha virt. eigenvalues --    7.37214   7.41307   7.44370   7.45741   7.47999
 Alpha virt. eigenvalues --    7.58354   7.66026   7.71866   7.87000   7.94474
 Alpha virt. eigenvalues --    8.05535   8.38646  15.30521  15.42033  16.12784
 Alpha virt. eigenvalues --   16.15538  16.21753  16.34720  16.39549  16.41657
 Alpha virt. eigenvalues --   16.46426  16.51649  16.61488  16.64610  16.73699
 Alpha virt. eigenvalues --   16.79061  17.18293  17.21791  20.95530  21.07540
 Alpha virt. eigenvalues --   21.70051  21.84824  22.01033  22.33660  22.75981
 Alpha virt. eigenvalues --   23.07393  26.12132  26.22014  26.27778  26.45854
 Alpha virt. eigenvalues --   26.55167  26.74583  27.14354  27.23560  27.31363
 Alpha virt. eigenvalues --   29.04442  29.38374  29.44917  39.22619  39.23420
 Alpha virt. eigenvalues --   39.28098  39.28378  39.30945  39.33876  39.40352
 Alpha virt. eigenvalues --   39.48108  39.61079  39.62505  41.35442  41.41104
 Alpha virt. eigenvalues --   41.42284  41.44754  41.46484  41.49677  41.51073
 Alpha virt. eigenvalues --   41.53980  41.54011  41.54951  41.61484  41.67752
 Alpha virt. eigenvalues --   41.68487  41.69187  41.71375  41.71704  41.71936
 Alpha virt. eigenvalues --   41.72473  41.74966  41.76008  43.83276  43.85535
 Alpha virt. eigenvalues --   43.88163  43.91045  43.91312  43.92600  43.94400
 Alpha virt. eigenvalues --   43.96331  43.99739  44.00586  44.05547  44.09399
 Alpha virt. eigenvalues --   44.11622  44.16000  44.16604  80.94788  81.04692
 Alpha virt. eigenvalues --   81.53467  81.58518  81.69702  81.75552  81.77397
 Alpha virt. eigenvalues --   81.79004  81.82036  81.84039  81.94061  81.97113
 Alpha virt. eigenvalues --   85.69980  85.83756  86.56931  86.65908 109.07007
 Alpha virt. eigenvalues --  109.22257 109.63277 109.75202 109.90130 110.10026
 Alpha virt. eigenvalues --  116.30834 117.00481 138.27554 138.36368 138.41800
 Alpha virt. eigenvalues --  138.52781 138.61087 138.76510 139.16069 139.24228
 Alpha virt. eigenvalues --  139.28880 149.64311 150.00417 150.04513
          Condensed to atoms (all electrons):
               1          2          3          4          5          6
     1  C    4.713038   0.405621   0.432247   0.359986  -0.070940  -0.074132
     2  H    0.405621   0.579650  -0.023979  -0.043705   0.000853   0.002695
     3  H    0.432247  -0.023979   0.584240  -0.051339   0.002321   0.005204
     4  C    0.359986  -0.043705  -0.051339   4.379179   0.700801   0.426365
     5  O   -0.070940   0.000853   0.002321   0.700801   7.941009  -0.108467
     6  N   -0.074132   0.002695   0.005204   0.426365  -0.108467   6.421174
     7  H   -0.002554   0.000245   0.000262  -0.026558   0.003395   0.392593
     8  C    0.004725  -0.000514  -0.000143  -0.038048   0.008874   0.317716
     9  H   -0.000180   0.000008  -0.000242  -0.005715   0.004576  -0.043969
    10  H    0.000317  -0.000064   0.000086  -0.002073   0.004463  -0.045826
    11  C    0.000672  -0.000077  -0.000166   0.003109   0.002300  -0.032282
    12  O   -0.000367   0.000003  -0.000074  -0.000750  -0.000020  -0.016406
    13  O   -0.000003  -0.000000  -0.000001  -0.000131   0.000003   0.001708
    14  H    0.000002   0.000000   0.000000   0.000028   0.000002  -0.000398
    15  N    0.370402  -0.020991  -0.030818  -0.076429  -0.006122   0.006153
    16  H   -0.044343  -0.005090   0.008134  -0.007020   0.010714   0.000908
    17  H   -0.050245   0.008294  -0.009030  -0.001181   0.002982   0.000165
               7          8          9         10         11         12
     1  C   -0.002554   0.004725  -0.000180   0.000317   0.000672  -0.000367
     2  H    0.000245  -0.000514   0.000008  -0.000064  -0.000077   0.000003
     3  H    0.000262  -0.000143  -0.000242   0.000086  -0.000166  -0.000074
     4  C   -0.026558  -0.038048  -0.005715  -0.002073   0.003109  -0.000750
     5  O    0.003395   0.008874   0.004576   0.004463   0.002300  -0.000020
     6  N    0.392593   0.317716  -0.043969  -0.045826  -0.032282  -0.016406
     7  H    0.480007  -0.037071   0.003913   0.003210  -0.010973   0.025464
     8  C   -0.037071   4.727252   0.418163   0.416517   0.334277  -0.073668
     9  H    0.003913   0.418163   0.576352  -0.040244  -0.022513   0.001005
    10  H    0.003210   0.416517  -0.040244   0.578249  -0.022868   0.000973
    11  C   -0.010973   0.334277  -0.022513  -0.022868   4.161034   0.705227
    12  O    0.025464  -0.073668   0.001005   0.000973   0.705227   7.877667
    13  O    0.000971  -0.076672   0.002586   0.002593   0.445874  -0.073894
    14  H   -0.000212   0.011423  -0.000498  -0.000506  -0.032069   0.003932
    15  N    0.000103  -0.000528   0.000021  -0.000041  -0.000006  -0.000000
    16  H   -0.000034  -0.000055  -0.000011  -0.000005  -0.000005   0.000000
    17  H   -0.000011  -0.000029   0.000011  -0.000007  -0.000002  -0.000000
              13         14         15         16         17
     1  C   -0.000003   0.000002   0.370402  -0.044343  -0.050245
     2  H   -0.000000   0.000000  -0.020991  -0.005090   0.008294
     3  H   -0.000001   0.000000  -0.030818   0.008134  -0.009030
     4  C   -0.000131   0.000028  -0.076429  -0.007020  -0.001181
     5  O    0.000003   0.000002  -0.006122   0.010714   0.002982
     6  N    0.001708  -0.000398   0.006153   0.000908   0.000165
     7  H    0.000971  -0.000212   0.000103  -0.000034  -0.000011
     8  C   -0.076672   0.011423  -0.000528  -0.000055  -0.000029
     9  H    0.002586  -0.000498   0.000021  -0.000011   0.000011
    10  H    0.002593  -0.000506  -0.000041  -0.000005  -0.000007
    11  C    0.445874  -0.032069  -0.000006  -0.000005  -0.000002
    12  O   -0.073894   0.003932  -0.000000   0.000000  -0.000000
    13  O    7.702525   0.333911  -0.000000  -0.000000  -0.000000
    14  H    0.333911   0.435061   0.000000  -0.000000   0.000000
    15  N   -0.000000   0.000000   6.265470   0.402003   0.403545
    16  H   -0.000000  -0.000000   0.402003   0.537252  -0.036122
    17  H   -0.000000   0.000000   0.403545  -0.036122   0.568418
 Mulliken charges:
               1
     1  C   -0.044246
     2  H    0.097050
     3  H    0.083298
     4  C    0.383481
     5  O   -0.496744
     6  N   -0.253199
     7  H    0.167250
     8  C   -0.012218
     9  H    0.106739
    10  H    0.105227
    11  C    0.468469
    12  O   -0.449090
    13  O   -0.339469
    14  H    0.249325
    15  N   -0.312761
    16  H    0.133674
    17  H    0.113214
 Sum of Mulliken charges =  -0.00000
 Mulliken charges with hydrogens summed into heavy atoms:
               1
     1  C    0.136102
     4  C    0.383481
     5  O   -0.496744
     6  N   -0.085949
     8  C    0.199748
    11  C    0.468469
    12  O   -0.449090
    13  O   -0.090144
    15  N   -0.065873
 Electronic spatial extent (au):  <R**2>=           1766.8979
 Charge=             -0.0000 electrons
 Dipole moment (field-independent basis, Debye):
    X=             -2.6283    Y=              0.8380    Z=             -0.2837  Tot=              2.7732
 Quadrupole moment (field-independent basis, Debye-Ang):
   XX=            -52.0210   YY=            -60.6413   ZZ=            -49.7713
   XY=              3.0902   XZ=             -1.2262   YZ=             -0.0498
 Traceless Quadrupole moment (field-independent basis, Debye-Ang):
   XX=              2.1235   YY=             -6.4967   ZZ=              4.3732
   XY=              3.0902   XZ=             -1.2262   YZ=             -0.0498
 Octapole moment (field-independent basis, Debye-Ang**2):
  XXX=            -98.2318  YYY=              3.0000  ZZZ=             -1.6368  XYY=              0.1615
  XXY=            -16.6785  XXZ=             -6.3359  XZZ=              2.2564  YZZ=             -1.0920
  YYZ=             -0.1746  XYZ=             -0.5281
 Hexadecapole moment (field-independent basis, Debye-Ang**3):
 XXXX=          -1711.2880 YYYY=           -291.2096 ZZZZ=            -61.5677 XXXY=           -130.9284
 XXXZ=            -19.8058 YYYX=             17.7232 YYYZ=             -0.8714 ZZZX=             -6.0505
 ZZZY=              0.3758 XXYY=           -410.0953 XXZZ=           -286.6446 YYZZ=            -54.5639
 XXYZ=             -3.0599 YYXZ=             -0.2069 ZZXY=             -1.0462
 N-N= 4.497259239000D+02 E-N=-2.051736005835D+03  KE= 4.892782088999D+02
 Leave Link  601 at Mon Jan 11 16:54:35 2021, MaxMem=  8053063680 cpu:              30.3 elap:               1.9
 (Enter /home/share/software/programs/Gaussian/g16/l9999.exe)
 Unable to Open any file for archive entry.
 1\1\GINC-CU39\SP\RMP2-Full\Gen\C4H8N2O3\ROOT\11-Jan-2021\0\\#p mp2=ful
 l/gen\\SP\\0,1\C,0,0.8105731,-2.41719403,0.14599829\H,0,1.20941091,-2.
 39719599,1.16546437\H,0,1.64552821,-2.18080098,-0.51871856\C,0,-0.2446
 2896,-1.31643412,0.05468108\O,0,-1.44542894,-1.55263821,0.04552586\N,0
 ,0.24084094,-0.05073308,0.01736815\H,0,1.23114893,0.139037,0.01625833\
 C,0,-0.64463915,1.08224186,0.00380796\H,0,-1.30344098,1.06900479,-0.86
 896717\H,0,-1.29701931,1.09621882,0.88159985\C,0,0.17142577,2.34652891
 ,-0.01920391\O,0,1.37879877,2.391939,-0.02323668\O,0,-0.61504531,3.435
 76285,-0.03487607\H,0,-0.02881436,4.20662989,-0.04874097\N,0,0.3204612
 5,-3.74924908,-0.14565978\H,0,-0.53390883,-3.90225612,0.38000207\H,0,0
 .04499944,-3.80212711,-1.11986184\\Version=ES64L-G16RevC.01\State=1-A\
 HF=-489.8393612\MP2=-492.0697748\RMSD=5.016e-09\PG=C01 [X(C4H8N2O3)]\\
 @
 The archive entry for this job was punched.


 THE WORLD IS MADE UP OF THE WILLS, THE WON'TS, AND THE CANT'S:
 THE WILLS DO EVERYTHING,
 THE WON'TS DO NOTHING,
 THE CAN'TS CAN'T DO ANYTHING.

                               -- FROM WALT DISNEY'S "BLACK HOLE"
 Job cpu time:       0 days  3 hours 30 minutes 42.8 seconds.
 Elapsed time:       0 days  0 hours  3 minutes 20.1 seconds.
 File lengths (MBytes):  RWF=  38832 Int=      0 D2E=      0 Chk=     18 Scr=      2
 Normal termination of Gaussian 16 at Mon Jan 11 16:54:39 2021.
