 Entering Gaussian System, Link 0=g09
 Input=ccc_Best_geom_CCSDT_CVTZ.gjf
 Output=ccc_Best_geom_CCSDT_CVTZ.log
 AtFile(1): /public/home/users/shu004/Basis_sets/cc-pCVTZ.gbs
            !  cc-pCVTZ  EMSL  Basis Set Exchange Library   10/10/16 1:18 AM
            ! Elements                             References
            ! --------                             ----------
            ! H     : T.H. Dunning, Jr. J. Chem. Phys. 90, 1007 (1989).
            ! He    : D.E. Woon and T.H. Dunning, Jr. J. Chem. Phys. 100, 2975 (1994).
            ! Li - Ne: T.H. Dunning, Jr. J. Chem. Phys. 90, 1007 (1989).
            ! Na - Mg: D.E. Woon and T.H. Dunning, Jr.  (to be published)
            ! Al - Ar: D.E. Woon and T.H. Dunning, Jr.  J. Chem. Phys. 98, 1358 (1993).
            ! Ca     : J. Koput and K.A. Peterson, J. Phys. Chem. A, 106, 9595 (2002).
            ! Sc - Zn: N.B. Balabanov and K.A. Peterson, J. Chem. Phys, 123, 064107 (2005)
            ! Ga - Kr: A.K. Wilson, D.E. Woon, K.A. Peterson, T.H. Dunning, Jr., J. Chem. Phys., 110, 7667 (1999)
            !
            ! Elements                             References
            ! --------                             ----------
            ! Li - Ne: T.H. Dunning, Jr. J. Chem. Phys. 90, 1007 (1989) and D. E. Woon and
            ! T.H. Dunning, Jr. J. Chem. Phys. 103, 4572 (1995).
            ! Al - Ar: K.A. Peterson and T.H. Dunning, Jr. J. Chem. Phys. 117, 10548 (2002)
            ! Ca     : K.A. Peterson (to be published)
            !
            -H  0
            cc-pVTZ
            ****
            C     0
            S   8   1.00
               8236.0000000              0.0005310
               1235.0000000              0.0041080
                280.8000000              0.0210870
                 79.2700000              0.0818530
                 25.5900000              0.2348170
                  8.9970000              0.4344010
                  3.3190000              0.3461290
                  0.3643000             -0.0089830
            S   8   1.00
               8236.0000000             -0.0001130
               1235.0000000             -0.0008780
                280.8000000             -0.0045400
                 79.2700000             -0.0181330
                 25.5900000             -0.0557600
                  8.9970000             -0.1268950
                  3.3190000             -0.1703520
                  0.3643000              0.5986840
            S   1   1.00
                  0.9059000              1.0000000
            S   1   1.00
                  0.1285000              1.0000000
            S   1   1.00
                  4.2920000              1.0000000
            S   1   1.00
                 11.8760000              1.0000000
            P   3   1.00
                 18.7100000              0.0140310
                  4.1330000              0.0868660
                  1.2000000              0.2902160
            P   1   1.00
                  0.3827000              1.0000000
            P   1   1.00
                  0.1209000              1.0000000
            P   1   1.00
                  8.7780000              1.0000000
            P   1   1.00
                 33.1900000              1.0000000
            D   1   1.00
                  1.0970000              1.0000000
            D   1   1.00
                  0.3180000              1.0000000
            D   1   1.00
                 14.8390000              1.0000000
            F   1   1.00
                  0.7610000              1.0000000
            ****
            N     0
            S   8   1.00
              11420.0000000              0.0005230
               1712.0000000              0.0040450
                389.3000000              0.0207750
                110.0000000              0.0807270
                 35.5700000              0.2330740
                 12.5400000              0.4335010
                  4.6440000              0.3474720
                  0.5118000             -0.0085080
            S   8   1.00
              11420.0000000             -0.0001150
               1712.0000000             -0.0008950
                389.3000000             -0.0046240
                110.0000000             -0.0185280
                 35.5700000             -0.0573390
                 12.5400000             -0.1320760
                  4.6440000             -0.1725100
                  0.5118000              0.5999440
            S   1   1.00
                  1.2930000              1.0000000
            S   1   1.00
                  0.1787000              1.0000000
            S   1   1.00
                  5.9520000              1.0000000
            S   1   1.00
                 16.2010000              1.0000000
            P   3   1.00
                 26.6300000              0.0146700
                  5.9480000              0.0917640
                  1.7420000              0.2986830
            P   1   1.00
                  0.5550000              1.0000000
            P   1   1.00
                  0.1725000              1.0000000
            P   1   1.00
                 11.8710000              1.0000000
            P   1   1.00
                 44.8490000              1.0000000
            D   1   1.00
                  1.6540000              1.0000000
            D   1   1.00
                  0.4690000              1.0000000
            D   1   1.00
                 14.2000000              1.0000000
            F   1   1.00
                  1.0930000              1.0000000
            ****
            O     0
            S   8   1.00
              15330.0000000              0.0005080
               2299.0000000              0.0039290
                522.4000000              0.0202430
                147.3000000              0.0791810
                 47.5500000              0.2306870
                 16.7600000              0.4331180
                  6.2070000              0.3502600
                  0.6882000             -0.0081540
            S   8   1.00
              15330.0000000             -0.0001150
               2299.0000000             -0.0008950
                522.4000000             -0.0046360
                147.3000000             -0.0187240
                 47.5500000             -0.0584630
                 16.7600000             -0.1364630
                  6.2070000             -0.1757400
                  0.6882000              0.6034180
            S   1   1.00
                  1.7520000              1.0000000
            S   1   1.00
                  0.2384000              1.0000000
            S   1   1.00
                  7.8450000              1.0000000
            S   1   1.00
                 21.0320000              1.0000000
            P   3   1.00
                 34.4600000              0.0159280
                  7.7490000              0.0997400
                  2.2800000              0.3104920
            P   1   1.00
                  0.7156000              1.0000000
            P   1   1.00
                  0.2140000              1.0000000
            P   1   1.00
                 15.1590000              1.0000000
            P   1   1.00
                 57.4370000              1.0000000
            D   1   1.00
                  2.3140000              1.0000000
            D   1   1.00
                  0.6450000              1.0000000
            D   1   1.00
                 15.8580000              1.0000000
            F   1   1.00
                  1.4280000              1.0000000
            ****
 Initial command:
 /public/home/users/shu004/g09/l1.exe "/public/home/users/shu004/scratch/Gau-23612.inp" -scrdir="/public/home/users/shu004/scratch/"
 Entering Link 1 = /public/home/users/shu004/g09/l1.exe PID=     23615.
  
 Copyright (c) 1988,1990,1992,1993,1995,1998,2003,2009,2013,
            Gaussian, Inc.  All Rights Reserved.
  
 This is part of the Gaussian(R) 09 program.  It is based on
 the Gaussian(R) 03 system (copyright 2003, Gaussian, Inc.),
 the Gaussian(R) 98 system (copyright 1998, Gaussian, Inc.),
 the Gaussian(R) 94 system (copyright 1995, Gaussian, Inc.),
 the Gaussian 92(TM) system (copyright 1992, Gaussian, Inc.),
 the Gaussian 90(TM) system (copyright 1990, Gaussian, Inc.),
 the Gaussian 88(TM) system (copyright 1988, Gaussian, Inc.),
 the Gaussian 86(TM) system (copyright 1986, Carnegie Mellon
 University), and the Gaussian 82(TM) system (copyright 1983,
 Carnegie Mellon University). Gaussian is a federally registered
 trademark of Gaussian, Inc.
  
 This software contains proprietary and confidential information,
 including trade secrets, belonging to Gaussian, Inc.
  
 This software is provided under written license and may be
 used, copied, transmitted, or stored only in accord with that
 written license.
  
 The following legend is applicable only to US Government
 contracts under FAR:
  
                    RESTRICTED RIGHTS LEGEND
  
 Use, reproduction and disclosure by the US Government is
 subject to restrictions as set forth in subparagraphs (a)
 and (c) of the Commercial Computer Software - Restricted
 Rights clause in FAR 52.227-19.
  
 Gaussian, Inc.
 340 Quinnipiac St., Bldg. 40, Wallingford CT 06492
  
  
 ---------------------------------------------------------------
 Warning -- This program may not be used in any manner that
 competes with the business of Gaussian, Inc. or will provide
 assistance to any competitor of Gaussian, Inc.  The licensee
 of this program is prohibited from giving any competitor of
 Gaussian, Inc. access to this program.  By using this program,
 the user acknowledges that Gaussian, Inc. is engaged in the
 business of creating and licensing software in the field of
 computational chemistry and represents and warrants to the
 licensee that it is not a competitor of Gaussian, Inc. and that
 it will not use this program in any manner prohibited above.
 ---------------------------------------------------------------
  

 Cite this work as:
 Gaussian 09, Revision D.01,
 M. J. Frisch, G. W. Trucks, H. B. Schlegel, G. E. Scuseria, 
 M. A. Robb, J. R. Cheeseman, G. Scalmani, V. Barone, B. Mennucci, 
 G. A. Petersson, H. Nakatsuji, M. Caricato, X. Li, H. P. Hratchian, 
 A. F. Izmaylov, J. Bloino, G. Zheng, J. L. Sonnenberg, M. Hada, 
 M. Ehara, K. Toyota, R. Fukuda, J. Hasegawa, M. Ishida, T. Nakajima, 
 Y. Honda, O. Kitao, H. Nakai, T. Vreven, J. A. Montgomery, Jr., 
 J. E. Peralta, F. Ogliaro, M. Bearpark, J. J. Heyd, E. Brothers, 
 K. N. Kudin, V. N. Staroverov, T. Keith, R. Kobayashi, J. Normand, 
 K. Raghavachari, A. Rendell, J. C. Burant, S. S. Iyengar, J. Tomasi, 
 M. Cossi, N. Rega, J. M. Millam, M. Klene, J. E. Knox, J. B. Cross, 
 V. Bakken, C. Adamo, J. Jaramillo, R. Gomperts, R. E. Stratmann, 
 O. Yazyev, A. J. Austin, R. Cammi, C. Pomelli, J. W. Ochterski, 
 R. L. Martin, K. Morokuma, V. G. Zakrzewski, G. A. Voth, 
 P. Salvador, J. J. Dannenberg, S. Dapprich, A. D. Daniels, 
 O. Farkas, J. B. Foresman, J. V. Ortiz, J. Cioslowski, 
 and D. J. Fox, Gaussian, Inc., Wallingford CT, 2013.
 
 ******************************************
 Gaussian 09:  ES64L-G09RevD.01 24-Apr-2013
                13-Oct-2016 
 ******************************************
 %chk=ccc_Best_geom_CCSDT_CVTZ.chk
 %nprocshared=12
 Will use up to   12 processors via shared memory.
 %mem=100GB
 --------------
 #P CCSD(T) gen
 --------------
 1/38=1/1;
 2/12=2,17=6,18=5,40=1/2;
 3/5=7,11=9,16=1,25=1,30=1/1,2,3;
 4//1;
 5/5=2,38=5/2;
 8/6=4,9=120000,10=1/1,4;
 9/5=7,14=2/13;
 6/7=2,8=2,9=2,10=2/1;
 99/5=1,9=1/99;
 Leave Link    1 at Thu Oct 13 23:48:50 2016, MaxMem= 13421772800 cpu:         1.1
 (Enter /public/home/users/shu004/g09/l101.exe)
 --------------------------
 start best geom PCCP paper
 --------------------------
 Symbolic Z-matrix:
 Charge =  0 Multiplicity = 1
 N
 H                    1    B1
 C                    1    B2       2    A1
 C                    3    B3       1    A2       2    D1       0
 H                    3    B4       1    A3       4    D2       0
 H                    3    B5       1    A4       4    D3       0
 O                    4    B6       3    A5       1    D4       0
 O                    4    B7       3    A6       1    D5       0
 H                    1    B8       3    A7       4    D6       0
 H                    8    B9       4    A8       3    D7       0
       Variables:
  B1                    1.0091                   
  B2                    1.4609                   
  A1                  112.0646                   
  B3                    1.5252                   
  A2                  111.6045                   
  D1                  101.3936                   
  B4                    1.0891                   
  A3                  110.2343                   
  D2                  117.8521                   
  B5                    1.089                    
  A4                  113.9016                   
  D3                 -121.6454                   
  B6                    1.2001                   
  A5                  122.6125                   
  D4                 -171.93                     
  B7                    1.3356                   
  A6                  114.3853                   
  D5                    8.8971                   
  B8                    1.008                    
  A7                  112.2608                   
  D6                 -136.9715                   
  B9                    0.976                    
  A8                  105.7699                   
  D7                   -1.3866                   
 
 NAtoms=     10 NQM=       10 NQMF=       0 NMMI=      0 NMMIF=      0
                NMic=       0 NMicF=      0.
                    Isotopes and Nuclear Properties:
 (Nuclear quadrupole moments (NQMom) in fm**2, nuclear magnetic moments (NMagM)
  in nuclear magnetons)

  Atom         1           2           3           4           5           6           7           8           9          10
 IAtWgt=          14           1          12          12           1           1          16          16           1           1
 AtmWgt=  14.0030740   1.0078250  12.0000000  12.0000000   1.0078250   1.0078250  15.9949146  15.9949146   1.0078250   1.0078250
 NucSpn=           2           1           0           0           1           1           0           0           1           1
 AtZEff=   0.0000000   0.0000000   0.0000000   0.0000000   0.0000000   0.0000000   0.0000000   0.0000000   0.0000000   0.0000000
 NQMom=    2.0440000   0.0000000   0.0000000   0.0000000   0.0000000   0.0000000   0.0000000   0.0000000   0.0000000   0.0000000
 NMagM=    0.4037610   2.7928460   0.0000000   0.0000000   2.7928460   2.7928460   0.0000000   0.0000000   2.7928460   2.7928460
 AtZNuc=   7.0000000   1.0000000   6.0000000   6.0000000   1.0000000   1.0000000   8.0000000   8.0000000   1.0000000   1.0000000
 Leave Link  101 at Thu Oct 13 23:48:50 2016, MaxMem= 13421772800 cpu:         1.8
 (Enter /public/home/users/shu004/g09/l202.exe)
                          Input orientation:                          
 ---------------------------------------------------------------------
 Center     Atomic      Atomic             Coordinates (Angstroms)
 Number     Number       Type             X           Y           Z
 ---------------------------------------------------------------------
      1          7           0        0.000000    0.000000    0.000000
      2          1           0        0.000000    0.000000    1.009100
      3          6           0        1.353905    0.000000   -0.548790
      4          6           0        1.769118   -1.390106   -1.019362
      5          1           0        1.405706    0.646494   -1.423719
      6          1           0        2.113699    0.344627    0.151115
      7          8           0        2.887214   -1.646392   -1.372093
      8          8           0        0.781571   -2.289312   -1.021685
      9          1           0       -0.537692    0.794255   -0.310017
     10          1           0       -0.004808   -1.820532   -0.683410
 ---------------------------------------------------------------------
                    Distance matrix (angstroms):
                    1          2          3          4          5
     1  N    0.000000
     2  H    1.009100   0.000000
     3  C    1.460900   2.063996   0.000000
     4  C    2.470076   3.029329   1.525200   0.000000
     5  H    2.102603   2.883153   1.089100   2.107916   0.000000
     6  H    2.146934   2.307082   1.089000   2.120861   1.752848
     7  O    3.595727   4.088605   2.395719   1.200100   2.730358
     8  O    2.625955   3.158463   2.406688   1.335600   3.028223
     9  H    1.008000   1.630957   2.065428   3.255146   2.244763
    10  H    1.944584   2.485749   2.275645   1.856056   2.936635
                    6          7          8          9         10
     6  H    0.000000
     7  O    2.623480   0.000000
     8  O    3.176107   2.229320   0.000000
     9  H    2.728494   4.337597   3.428602   0.000000
    10  H    3.142040   2.977986   0.976000   2.694531   0.000000
 Stoichiometry    C2H5NO2
 Framework group  C1[X(C2H5NO2)]
 Deg. of freedom    24
 Full point group                 C1      NOp   1
 Largest Abelian subgroup         C1      NOp   1
 Largest concise Abelian subgroup C1      NOp   1
                         Standard orientation:                         
 ---------------------------------------------------------------------
 Center     Atomic      Atomic             Coordinates (Angstroms)
 Number     Number       Type             X           Y           Z
 ---------------------------------------------------------------------
      1          7           0       -1.777783    0.124928   -0.048772
      2          1           0       -2.176227    0.113925   -0.975812
      3          6           0       -0.642823   -0.786994    0.071611
      4          6           0        0.686110   -0.041625    0.003814
      5          1           0       -0.662886   -1.287754    1.038553
      6          1           0       -0.617441   -1.563047   -0.691946
      7          8           0        1.742553   -0.607441   -0.059578
      8          8           0        0.574514    1.288852    0.038515
      9          1           0       -2.512293   -0.090938    0.606942
     10          1           0       -0.382931    1.473747    0.079614
 ---------------------------------------------------------------------
 Rotational constants (GHZ):     10.2054236      4.0954771      3.0305608
 Leave Link  202 at Thu Oct 13 23:48:51 2016, MaxMem= 13421772800 cpu:         0.5
 (Enter /public/home/users/shu004/g09/l301.exe)
 General basis read from cards:  (5D, 7F)
 Centers:       2      5      6      9     10
 cc-pVTZ
 ****
 Centers:       3      4
 S 8 1.00
     Exponent=  8.2360000000D+03 Coefficients=  5.3100000000D-04
     Exponent=  1.2350000000D+03 Coefficients=  4.1080000000D-03
     Exponent=  2.8080000000D+02 Coefficients=  2.1087000000D-02
     Exponent=  7.9270000000D+01 Coefficients=  8.1853000000D-02
     Exponent=  2.5590000000D+01 Coefficients=  2.3481700000D-01
     Exponent=  8.9970000000D+00 Coefficients=  4.3440100000D-01
     Exponent=  3.3190000000D+00 Coefficients=  3.4612900000D-01
     Exponent=  3.6430000000D-01 Coefficients= -8.9830000000D-03
 S 8 1.00
     Exponent=  8.2360000000D+03 Coefficients= -1.1300000000D-04
     Exponent=  1.2350000000D+03 Coefficients= -8.7800000000D-04
     Exponent=  2.8080000000D+02 Coefficients= -4.5400000000D-03
     Exponent=  7.9270000000D+01 Coefficients= -1.8133000000D-02
     Exponent=  2.5590000000D+01 Coefficients= -5.5760000000D-02
     Exponent=  8.9970000000D+00 Coefficients= -1.2689500000D-01
     Exponent=  3.3190000000D+00 Coefficients= -1.7035200000D-01
     Exponent=  3.6430000000D-01 Coefficients=  5.9868400000D-01
 S 1 1.00
     Exponent=  9.0590000000D-01 Coefficients=  1.0000000000D+00
 S 1 1.00
     Exponent=  1.2850000000D-01 Coefficients=  1.0000000000D+00
 S 1 1.00
     Exponent=  4.2920000000D+00 Coefficients=  1.0000000000D+00
 S 1 1.00
     Exponent=  1.1876000000D+01 Coefficients=  1.0000000000D+00
 P 3 1.00
     Exponent=  1.8710000000D+01 Coefficients=  1.4031000000D-02
     Exponent=  4.1330000000D+00 Coefficients=  8.6866000000D-02
     Exponent=  1.2000000000D+00 Coefficients=  2.9021600000D-01
 P 1 1.00
     Exponent=  3.8270000000D-01 Coefficients=  1.0000000000D+00
 P 1 1.00
     Exponent=  1.2090000000D-01 Coefficients=  1.0000000000D+00
 P 1 1.00
     Exponent=  8.7780000000D+00 Coefficients=  1.0000000000D+00
 P 1 1.00
     Exponent=  3.3190000000D+01 Coefficients=  1.0000000000D+00
 D 1 1.00
     Exponent=  1.0970000000D+00 Coefficients=  1.0000000000D+00
 D 1 1.00
     Exponent=  3.1800000000D-01 Coefficients=  1.0000000000D+00
 D 1 1.00
     Exponent=  1.4839000000D+01 Coefficients=  1.0000000000D+00
 F 1 1.00
     Exponent=  7.6100000000D-01 Coefficients=  1.0000000000D+00
 ****
 Centers:       1
 S 8 1.00
     Exponent=  1.1420000000D+04 Coefficients=  5.2300000000D-04
     Exponent=  1.7120000000D+03 Coefficients=  4.0450000000D-03
     Exponent=  3.8930000000D+02 Coefficients=  2.0775000000D-02
     Exponent=  1.1000000000D+02 Coefficients=  8.0727000000D-02
     Exponent=  3.5570000000D+01 Coefficients=  2.3307400000D-01
     Exponent=  1.2540000000D+01 Coefficients=  4.3350100000D-01
     Exponent=  4.6440000000D+00 Coefficients=  3.4747200000D-01
     Exponent=  5.1180000000D-01 Coefficients= -8.5080000000D-03
 S 8 1.00
     Exponent=  1.1420000000D+04 Coefficients= -1.1500000000D-04
     Exponent=  1.7120000000D+03 Coefficients= -8.9500000000D-04
     Exponent=  3.8930000000D+02 Coefficients= -4.6240000000D-03
     Exponent=  1.1000000000D+02 Coefficients= -1.8528000000D-02
     Exponent=  3.5570000000D+01 Coefficients= -5.7339000000D-02
     Exponent=  1.2540000000D+01 Coefficients= -1.3207600000D-01
     Exponent=  4.6440000000D+00 Coefficients= -1.7251000000D-01
     Exponent=  5.1180000000D-01 Coefficients=  5.9994400000D-01
 S 1 1.00
     Exponent=  1.2930000000D+00 Coefficients=  1.0000000000D+00
 S 1 1.00
     Exponent=  1.7870000000D-01 Coefficients=  1.0000000000D+00
 S 1 1.00
     Exponent=  5.9520000000D+00 Coefficients=  1.0000000000D+00
 S 1 1.00
     Exponent=  1.6201000000D+01 Coefficients=  1.0000000000D+00
 P 3 1.00
     Exponent=  2.6630000000D+01 Coefficients=  1.4670000000D-02
     Exponent=  5.9480000000D+00 Coefficients=  9.1764000000D-02
     Exponent=  1.7420000000D+00 Coefficients=  2.9868300000D-01
 P 1 1.00
     Exponent=  5.5500000000D-01 Coefficients=  1.0000000000D+00
 P 1 1.00
     Exponent=  1.7250000000D-01 Coefficients=  1.0000000000D+00
 P 1 1.00
     Exponent=  1.1871000000D+01 Coefficients=  1.0000000000D+00
 P 1 1.00
     Exponent=  4.4849000000D+01 Coefficients=  1.0000000000D+00
 D 1 1.00
     Exponent=  1.6540000000D+00 Coefficients=  1.0000000000D+00
 D 1 1.00
     Exponent=  4.6900000000D-01 Coefficients=  1.0000000000D+00
 D 1 1.00
     Exponent=  1.4200000000D+01 Coefficients=  1.0000000000D+00
 F 1 1.00
     Exponent=  1.0930000000D+00 Coefficients=  1.0000000000D+00
 ****
 Centers:       7      8
 S 8 1.00
     Exponent=  1.5330000000D+04 Coefficients=  5.0800000000D-04
     Exponent=  2.2990000000D+03 Coefficients=  3.9290000000D-03
     Exponent=  5.2240000000D+02 Coefficients=  2.0243000000D-02
     Exponent=  1.4730000000D+02 Coefficients=  7.9181000000D-02
     Exponent=  4.7550000000D+01 Coefficients=  2.3068700000D-01
     Exponent=  1.6760000000D+01 Coefficients=  4.3311800000D-01
     Exponent=  6.2070000000D+00 Coefficients=  3.5026000000D-01
     Exponent=  6.8820000000D-01 Coefficients= -8.1540000000D-03
 S 8 1.00
     Exponent=  1.5330000000D+04 Coefficients= -1.1500000000D-04
     Exponent=  2.2990000000D+03 Coefficients= -8.9500000000D-04
     Exponent=  5.2240000000D+02 Coefficients= -4.6360000000D-03
     Exponent=  1.4730000000D+02 Coefficients= -1.8724000000D-02
     Exponent=  4.7550000000D+01 Coefficients= -5.8463000000D-02
     Exponent=  1.6760000000D+01 Coefficients= -1.3646300000D-01
     Exponent=  6.2070000000D+00 Coefficients= -1.7574000000D-01
     Exponent=  6.8820000000D-01 Coefficients=  6.0341800000D-01
 S 1 1.00
     Exponent=  1.7520000000D+00 Coefficients=  1.0000000000D+00
 S 1 1.00
     Exponent=  2.3840000000D-01 Coefficients=  1.0000000000D+00
 S 1 1.00
     Exponent=  7.8450000000D+00 Coefficients=  1.0000000000D+00
 S 1 1.00
     Exponent=  2.1032000000D+01 Coefficients=  1.0000000000D+00
 P 3 1.00
     Exponent=  3.4460000000D+01 Coefficients=  1.5928000000D-02
     Exponent=  7.7490000000D+00 Coefficients=  9.9740000000D-02
     Exponent=  2.2800000000D+00 Coefficients=  3.1049200000D-01
 P 1 1.00
     Exponent=  7.1560000000D-01 Coefficients=  1.0000000000D+00
 P 1 1.00
     Exponent=  2.1400000000D-01 Coefficients=  1.0000000000D+00
 P 1 1.00
     Exponent=  1.5159000000D+01 Coefficients=  1.0000000000D+00
 P 1 1.00
     Exponent=  5.7437000000D+01 Coefficients=  1.0000000000D+00
 D 1 1.00
     Exponent=  2.3140000000D+00 Coefficients=  1.0000000000D+00
 D 1 1.00
     Exponent=  6.4500000000D-01 Coefficients=  1.0000000000D+00
 D 1 1.00
     Exponent=  1.5858000000D+01 Coefficients=  1.0000000000D+00
 F 1 1.00
     Exponent=  1.4280000000D+00 Coefficients=  1.0000000000D+00
 ****
 Ernie: Thresh=  0.10000D-02 Tol=  0.10000D-05 Strict=F.
 Ernie:  15 primitive shells out of 195 were deleted.
 There are   320 symmetry adapted cartesian basis functions of A   symmetry.
 There are   285 symmetry adapted basis functions of A   symmetry.
   285 basis functions,   415 primitive gaussians,   320 cartesian basis functions
    20 alpha electrons       20 beta electrons
       nuclear repulsion energy       181.0042851162 Hartrees.
 IExCor=    0 DFT=F Ex=HF Corr=None ExCW=0 ScaHFX=  1.000000
 ScaDFX=  1.000000  1.000000  1.000000  1.000000 ScalE2=  1.000000  1.000000
 IRadAn=      0 IRanWt=     -1 IRanGd=            0 ICorTp=0 IEmpDi=  4
 NAtoms=   10 NActive=   10 NUniq=   10 SFac= 1.00D+00 NAtFMM=   60 NAOKFM=F Big=F
 Integral buffers will be    131072 words long.
 Raffenetti 1 integral format.
 Two-electron integral symmetry is turned on.
 Leave Link  301 at Thu Oct 13 23:48:51 2016, MaxMem= 13421772800 cpu:         3.5
 (Enter /public/home/users/shu004/g09/l302.exe)
 NPDir=0 NMtPBC=     1 NCelOv=     1 NCel=       1 NClECP=     1 NCelD=      1
         NCelK=      1 NCelE2=     1 NClLst=     1 CellRange=     0.0.
 One-electron integrals computed using PRISM.
 NBasis=   285 RedAO= T EigKep=  4.80D-04  NBF=   285
 NBsUse=   285 1.00D-06 EigRej= -1.00D+00 NBFU=   285
 Leave Link  302 at Thu Oct 13 23:48:52 2016, MaxMem= 13421772800 cpu:         5.2
 (Enter /public/home/users/shu004/g09/l303.exe)
 DipDrv:  MaxL=1.
 Leave Link  303 at Thu Oct 13 23:48:52 2016, MaxMem= 13421772800 cpu:         1.0
 (Enter /public/home/users/shu004/g09/l401.exe)
 ExpMin= 1.03D-01 ExpMax= 1.53D+04 ExpMxC= 5.22D+02 IAcc=1 IRadAn=         1 AccDes= 0.00D+00
 Harris functional with IExCor=  205 and IRadAn=       1 diagonalized for initial guess.
 HarFok:  IExCor=  205 AccDes= 0.00D+00 IRadAn=         1 IDoV= 1 UseB2=F ITyADJ=14
 ICtDFT=  3500011 ScaDFX=  1.000000  1.000000  1.000000  1.000000
 FoFCou: FMM=F IPFlag=           0 FMFlag=      100000 FMFlg1=           0
         NFxFlg=           0 DoJE=T BraDBF=F KetDBF=T FulRan=T
         wScrn=  0.000000 ICntrl=     500 IOpCl=  0 I1Cent=   200000004 NGrid=           0
         NMat0=    1 NMatS0=      1 NMatT0=    0 NMatD0=    1 NMtDS0=    0 NMtDT0=    0
 Petite list used in FoFCou.
 Harris En= -283.234855619786    
 JPrj=0 DoOrth=F DoCkMO=F.
 Leave Link  401 at Thu Oct 13 23:48:53 2016, MaxMem= 13421772800 cpu:         7.1
 (Enter /public/home/users/shu004/g09/l502.exe)
 Closed shell SCF:
 Using DIIS extrapolation, IDIIS=  1040.
 Integral symmetry usage will be decided dynamically.
 Keep R1 ints in memory in canonical form, NReq=847375230.
 IVT=      331920 IEndB=      331920 NGot= 13421772800 MDV= 12590935491
 LenX= 12590935491 LenY= 12590832650
 Requested convergence on RMS density matrix=1.00D-08 within 128 cycles.
 Requested convergence on MAX density matrix=1.00D-06.
 Requested convergence on             energy=1.00D-06.
 No special actions if energy rises.
 FoFCou: FMM=F IPFlag=           0 FMFlag=           0 FMFlg1=           0
         NFxFlg=           0 DoJE=F BraDBF=F KetDBF=F FulRan=T
         wScrn=  0.000000 ICntrl=     600 IOpCl=  0 I1Cent=           0 NGrid=           0
         NMat0=    1 NMatS0=  40755 NMatT0=    0 NMatD0=    1 NMtDS0=    0 NMtDT0=    0
 Symmetry not used in FoFCou.

 Cycle   1  Pass 1  IDiag  1:
 E= -282.709105054901    
 DIIS: error= 4.00D-02 at cycle   1 NSaved=   1.
 NSaved= 1 IEnMin= 1 EnMin= -282.709105054901     IErMin= 1 ErrMin= 4.00D-02
 ErrMax= 4.00D-02  0.00D+00 EMaxC= 1.00D-01 BMatC= 6.75D-01 BMatP= 6.75D-01
 IDIUse=3 WtCom= 6.00D-01 WtEn= 4.00D-01
 Coeff-Com:  0.100D+01
 Coeff-En:   0.100D+01
 Coeff:      0.100D+01
 Gap=     0.579 Goal=   None    Shift=    0.000
 GapD=    0.579 DampG=2.000 DampE=0.500 DampFc=1.0000 IDamp=-1.
 RMSDP=1.60D-03 MaxDP=9.12D-02              OVMax= 1.26D-01

 Cycle   2  Pass 1  IDiag  1:
 E= -282.895662574571     Delta-E=       -0.186557519670 Rises=F Damp=F
 DIIS: error= 1.40D-02 at cycle   2 NSaved=   2.
 NSaved= 2 IEnMin= 2 EnMin= -282.895662574571     IErMin= 2 ErrMin= 1.40D-02
 ErrMax= 1.40D-02  0.00D+00 EMaxC= 1.00D-01 BMatC= 7.62D-02 BMatP= 6.75D-01
 IDIUse=3 WtCom= 8.60D-01 WtEn= 1.40D-01
 Coeff-Com:  0.170D+00 0.830D+00
 Coeff-En:   0.000D+00 0.100D+01
 Coeff:      0.146D+00 0.854D+00
 Gap=     0.573 Goal=   None    Shift=    0.000
 RMSDP=8.92D-04 MaxDP=6.71D-02 DE=-1.87D-01 OVMax= 5.27D-02

 Cycle   3  Pass 1  IDiag  1:
 E= -282.936642668400     Delta-E=       -0.040980093829 Rises=F Damp=F
 DIIS: error= 8.16D-03 at cycle   3 NSaved=   3.
 NSaved= 3 IEnMin= 3 EnMin= -282.936642668400     IErMin= 3 ErrMin= 8.16D-03
 ErrMax= 8.16D-03  0.00D+00 EMaxC= 1.00D-01 BMatC= 1.25D-02 BMatP= 7.62D-02
 IDIUse=3 WtCom= 9.18D-01 WtEn= 8.16D-02
 Coeff-Com: -0.241D-01 0.261D+00 0.763D+00
 Coeff-En:   0.000D+00 0.000D+00 0.100D+01
 Coeff:     -0.221D-01 0.240D+00 0.782D+00
 Gap=     0.535 Goal=   None    Shift=    0.000
 RMSDP=1.84D-04 MaxDP=9.20D-03 DE=-4.10D-02 OVMax= 2.72D-02

 Cycle   4  Pass 1  IDiag  1:
 E= -282.944175045336     Delta-E=       -0.007532376936 Rises=F Damp=F
 DIIS: error= 1.18D-03 at cycle   4 NSaved=   4.
 NSaved= 4 IEnMin= 4 EnMin= -282.944175045336     IErMin= 4 ErrMin= 1.18D-03
 ErrMax= 1.18D-03  0.00D+00 EMaxC= 1.00D-01 BMatC= 4.49D-04 BMatP= 1.25D-02
 IDIUse=3 WtCom= 9.88D-01 WtEn= 1.18D-02
 Coeff-Com: -0.104D-01 0.546D-01 0.247D+00 0.709D+00
 Coeff-En:   0.000D+00 0.000D+00 0.000D+00 0.100D+01
 Coeff:     -0.103D-01 0.540D-01 0.244D+00 0.712D+00
 Gap=     0.532 Goal=   None    Shift=    0.000
 RMSDP=5.13D-05 MaxDP=2.08D-03 DE=-7.53D-03 OVMax= 4.41D-03

 Cycle   5  Pass 1  IDiag  1:
 E= -282.944537372377     Delta-E=       -0.000362327042 Rises=F Damp=F
 DIIS: error= 5.03D-04 at cycle   5 NSaved=   5.
 NSaved= 5 IEnMin= 5 EnMin= -282.944537372377     IErMin= 5 ErrMin= 5.03D-04
 ErrMax= 5.03D-04  0.00D+00 EMaxC= 1.00D-01 BMatC= 2.57D-05 BMatP= 4.49D-04
 IDIUse=3 WtCom= 9.95D-01 WtEn= 5.03D-03
 Coeff-Com:  0.191D-02-0.230D-01-0.701D-01 0.313D-01 0.106D+01
 Coeff-En:   0.000D+00 0.000D+00 0.000D+00 0.000D+00 0.100D+01
 Coeff:      0.190D-02-0.228D-01-0.697D-01 0.311D-01 0.106D+01
 Gap=     0.532 Goal=   None    Shift=    0.000
 RMSDP=2.79D-05 MaxDP=1.30D-03 DE=-3.62D-04 OVMax= 3.49D-03

 Cycle   6  Pass 1  IDiag  1:
 E= -282.944585674252     Delta-E=       -0.000048301875 Rises=F Damp=F
 DIIS: error= 1.15D-04 at cycle   6 NSaved=   6.
 NSaved= 6 IEnMin= 6 EnMin= -282.944585674252     IErMin= 6 ErrMin= 1.15D-04
 ErrMax= 1.15D-04  0.00D+00 EMaxC= 1.00D-01 BMatC= 4.15D-06 BMatP= 2.57D-05
 IDIUse=3 WtCom= 9.99D-01 WtEn= 1.15D-03
 Coeff-Com:  0.141D-02-0.105D-01-0.389D-01-0.804D-01 0.196D+00 0.933D+00
 Coeff-En:   0.000D+00 0.000D+00 0.000D+00 0.000D+00 0.000D+00 0.100D+01
 Coeff:      0.140D-02-0.105D-01-0.389D-01-0.803D-01 0.195D+00 0.933D+00
 Gap=     0.533 Goal=   None    Shift=    0.000
 RMSDP=1.17D-05 MaxDP=6.51D-04 DE=-4.83D-05 OVMax= 1.03D-03

 Cycle   7  Pass 1  IDiag  1:
 E= -282.944593141028     Delta-E=       -0.000007466776 Rises=F Damp=F
 DIIS: error= 5.26D-05 at cycle   7 NSaved=   7.
 NSaved= 7 IEnMin= 7 EnMin= -282.944593141028     IErMin= 7 ErrMin= 5.26D-05
 ErrMax= 5.26D-05  0.00D+00 EMaxC= 1.00D-01 BMatC= 5.03D-07 BMatP= 4.15D-06
 IDIUse=1 WtCom= 1.00D+00 WtEn= 0.00D+00
 Coeff-Com: -0.137D-03 0.217D-02 0.801D-02-0.146D-01-0.112D+00 0.253D-01
 Coeff-Com:  0.109D+01
 Coeff:     -0.137D-03 0.217D-02 0.801D-02-0.146D-01-0.112D+00 0.253D-01
 Coeff:      0.109D+01
 Gap=     0.533 Goal=   None    Shift=    0.000
 RMSDP=4.16D-06 MaxDP=1.44D-04 DE=-7.47D-06 OVMax= 6.72D-04

 Cycle   8  Pass 1  IDiag  1:
 E= -282.944594457200     Delta-E=       -0.000001316171 Rises=F Damp=F
 DIIS: error= 1.98D-05 at cycle   8 NSaved=   8.
 NSaved= 8 IEnMin= 8 EnMin= -282.944594457200     IErMin= 8 ErrMin= 1.98D-05
 ErrMax= 1.98D-05  0.00D+00 EMaxC= 1.00D-01 BMatC= 7.54D-08 BMatP= 5.03D-07
 IDIUse=1 WtCom= 1.00D+00 WtEn= 0.00D+00
 Coeff-Com: -0.187D-03 0.141D-02 0.532D-02 0.749D-02-0.163D-01-0.126D+00
 Coeff-Com: -0.725D-01 0.120D+01
 Coeff:     -0.187D-03 0.141D-02 0.532D-02 0.749D-02-0.163D-01-0.126D+00
 Coeff:     -0.725D-01 0.120D+01
 Gap=     0.533 Goal=   None    Shift=    0.000
 RMSDP=1.79D-06 MaxDP=6.02D-05 DE=-1.32D-06 OVMax= 2.84D-04

 Cycle   9  Pass 1  IDiag  1:
 E= -282.944594662773     Delta-E=       -0.000000205573 Rises=F Damp=F
 DIIS: error= 7.03D-06 at cycle   9 NSaved=   9.
 NSaved= 9 IEnMin= 9 EnMin= -282.944594662773     IErMin= 9 ErrMin= 7.03D-06
 ErrMax= 7.03D-06  0.00D+00 EMaxC= 1.00D-01 BMatC= 9.14D-09 BMatP= 7.54D-08
 IDIUse=1 WtCom= 1.00D+00 WtEn= 0.00D+00
 Coeff-Com: -0.184D-04 0.291D-05 0.386D-04 0.228D-02 0.129D-01-0.256D-01
 Coeff-Com: -0.142D+00 0.188D+00 0.965D+00
 Coeff:     -0.184D-04 0.291D-05 0.386D-04 0.228D-02 0.129D-01-0.256D-01
 Coeff:     -0.142D+00 0.188D+00 0.965D+00
 Gap=     0.533 Goal=   None    Shift=    0.000
 RMSDP=5.43D-07 MaxDP=1.96D-05 DE=-2.06D-07 OVMax= 8.28D-05

 Cycle  10  Pass 1  IDiag  1:
 E= -282.944594682550     Delta-E=       -0.000000019777 Rises=F Damp=F
 DIIS: error= 1.93D-06 at cycle  10 NSaved=  10.
 NSaved=10 IEnMin=10 EnMin= -282.944594682550     IErMin=10 ErrMin= 1.93D-06
 ErrMax= 1.93D-06  0.00D+00 EMaxC= 1.00D-01 BMatC= 1.10D-09 BMatP= 9.14D-09
 IDIUse=1 WtCom= 1.00D+00 WtEn= 0.00D+00
 Coeff-Com:  0.238D-04-0.196D-03-0.709D-03-0.120D-02 0.389D-02 0.143D-01
 Coeff-Com:  0.224D-02-0.159D+00 0.795D-01 0.106D+01
 Coeff:      0.238D-04-0.196D-03-0.709D-03-0.120D-02 0.389D-02 0.143D-01
 Coeff:      0.224D-02-0.159D+00 0.795D-01 0.106D+01
 Gap=     0.533 Goal=   None    Shift=    0.000
 RMSDP=1.96D-07 MaxDP=7.17D-06 DE=-1.98D-08 OVMax= 2.40D-05

 Cycle  11  Pass 1  IDiag  1:
 E= -282.944594684910     Delta-E=       -0.000000002360 Rises=F Damp=F
 DIIS: error= 4.57D-07 at cycle  11 NSaved=  11.
 NSaved=11 IEnMin=11 EnMin= -282.944594684910     IErMin=11 ErrMin= 4.57D-07
 ErrMax= 4.57D-07  0.00D+00 EMaxC= 1.00D-01 BMatC= 8.05D-11 BMatP= 1.10D-09
 IDIUse=1 WtCom= 1.00D+00 WtEn= 0.00D+00
 Coeff-Com:  0.591D-06 0.393D-05 0.461D-04-0.153D-03-0.113D-02 0.745D-03
 Coeff-Com:  0.123D-01-0.175D-02-0.961D-01-0.110D+00 0.120D+01
 Coeff:      0.591D-06 0.393D-05 0.461D-04-0.153D-03-0.113D-02 0.745D-03
 Coeff:      0.123D-01-0.175D-02-0.961D-01-0.110D+00 0.120D+01
 Gap=     0.533 Goal=   None    Shift=    0.000
 RMSDP=6.25D-08 MaxDP=2.55D-06 DE=-2.36D-09 OVMax= 5.56D-06

 Cycle  12  Pass 1  IDiag  1:
 E= -282.944594685109     Delta-E=       -0.000000000198 Rises=F Damp=F
 DIIS: error= 1.24D-07 at cycle  12 NSaved=  12.
 NSaved=12 IEnMin=12 EnMin= -282.944594685109     IErMin=12 ErrMin= 1.24D-07
 ErrMax= 1.24D-07  0.00D+00 EMaxC= 1.00D-01 BMatC= 5.34D-12 BMatP= 8.05D-11
 IDIUse=1 WtCom= 1.00D+00 WtEn= 0.00D+00
 Coeff-Com: -0.171D-05 0.137D-04 0.527D-04 0.841D-04-0.217D-03-0.116D-02
 Coeff-Com: -0.120D-02 0.139D-01-0.212D-02-0.788D-01-0.481D-01 0.112D+01
 Coeff:     -0.171D-05 0.137D-04 0.527D-04 0.841D-04-0.217D-03-0.116D-02
 Coeff:     -0.120D-02 0.139D-01-0.212D-02-0.788D-01-0.481D-01 0.112D+01
 Gap=     0.533 Goal=   None    Shift=    0.000
 RMSDP=1.51D-08 MaxDP=4.29D-07 DE=-1.98D-10 OVMax= 1.29D-06

 Cycle  13  Pass 1  IDiag  1:
 E= -282.944594685117     Delta-E=       -0.000000000009 Rises=F Damp=F
 DIIS: error= 3.46D-08 at cycle  13 NSaved=  13.
 NSaved=13 IEnMin=13 EnMin= -282.944594685117     IErMin=13 ErrMin= 3.46D-08
 ErrMax= 3.46D-08  0.00D+00 EMaxC= 1.00D-01 BMatC= 5.60D-13 BMatP= 5.34D-12
 IDIUse=1 WtCom= 1.00D+00 WtEn= 0.00D+00
 Coeff-Com:  0.355D-07-0.106D-05-0.676D-05 0.100D-04 0.137D-03-0.319D-04
 Coeff-Com: -0.143D-02 0.300D-03 0.968D-02 0.108D-01-0.120D+00 0.219D-01
 Coeff-Com:  0.108D+01
 Coeff:      0.355D-07-0.106D-05-0.676D-05 0.100D-04 0.137D-03-0.319D-04
 Coeff:     -0.143D-02 0.300D-03 0.968D-02 0.108D-01-0.120D+00 0.219D-01
 Coeff:      0.108D+01
 Gap=     0.533 Goal=   None    Shift=    0.000
 RMSDP=4.57D-09 MaxDP=1.11D-07 DE=-8.64D-12 OVMax= 5.43D-07

 SCF Done:  E(RHF) =  -282.944594685     A.U. after   13 cycles
            NFock= 13  Conv=0.46D-08     -V/T= 2.0010
 KE= 2.826653854373D+02 PE=-1.028532790476D+03 EE= 2.819185252374D+02
 Leave Link  502 at Thu Oct 13 23:49:14 2016, MaxMem= 13421772800 cpu:        74.8
 (Enter /public/home/users/shu004/g09/l801.exe)
 Windowed orbitals will be sorted by symmetry type.
 ExpMin= 1.03D-01 ExpMax= 1.53D+04 ExpMxC= 5.22D+02 IAcc=3 IRadAn=         5 AccDes= 0.00D+00
 HarFok:  IExCor=  205 AccDes= 0.00D+00 IRadAn=         5 IDoV=-2 UseB2=F ITyADJ=14
 ICtDFT= 12500011 ScaDFX=  1.000000  1.000000  1.000000  1.000000
 DSYEVD-2 returned Info=          87 IAlg= 4 N=    43 NDim=    43 NE2=   312128783 trying  DSYEV.
 Largest valence mixing into a core orbital is  2.09D-04
 Largest core mixing into a valence orbital is  2.98D-05
 Range of M.O.s used for correlation:     6   285
 NBasis=   285 NAE=    20 NBE=    20 NFC=     5 NFV=     0
 NROrb=    280 NOA=    15 NOB=    15 NVA=   265 NVB=   265

 **** Warning!!: The largest alpha MO coefficient is  0.10095413D+02

 Leave Link  801 at Thu Oct 13 23:49:14 2016, MaxMem= 13421772800 cpu:         2.0
 (Enter /public/home/users/shu004/g09/l804.exe)
 Closed-shell transformation, MDV= 13421772800 ITran=4 ISComp=1.
 Semi-Direct transformation.
 ModeAB=           4 MOrb=            15 LenV=   13419711712
 LASXX=    158941965 LTotXX=   158941965 LenRXX=   319562265
 LTotAB=   160620300 MaxLAS=   203044800 LenRXY=           0
 NonZer=   478504230 LenScr=   720571392 LnRSAI=   203044800
 LnScr1=   305762304 LExtra=           0 Total=   1548940761
 MaxDsk=          -1 SrtSym=           T ITran=            4
 DoSDTr:  NPSUse= 12
 JobTyp=0 Pass  1:  I=   1 to  15.
 (rs|ai) integrals will be sorted in core.
 Complete sort for first half transformation.
 First half transformation complete.
 Begin second half transformation for I=  10.
 Complete sort for second half transformation.
 Second half transformation complete.
 SymMOI:  orbitals are not symmetric.
 Spin components of T(2) and E(2):
     alpha-alpha T2 =       0.3571827640D-01 E2=     -0.1290617838D+00
     alpha-beta  T2 =       0.1981417263D+00 E2=     -0.7658443266D+00
     beta-beta   T2 =       0.3571827640D-01 E2=     -0.1290617838D+00
 ANorm=    0.1126755643D+01
 E2 =    -0.1023967894D+01 EUMP2 =    -0.28396856257930D+03
 Leave Link  804 at Thu Oct 13 23:50:03 2016, MaxMem= 13421772800 cpu:       580.2
 (Enter /public/home/users/shu004/g09/l913.exe)
 CIDS:  MDV= 13421772800.
 Frozen-core window:  NFC=   5 NFV=   0.
 IFCWin=0 IBDFC=1 NFBD=     0     0 NFCmp=     0     0 NFFFC=     0     0
 Using DD3R+UMP44R for 1st iteration, S=T.
 Using DD4RQ for 2nd and later iterations.
 Keep R2 and R3 ints in memory in canonical form, NReq=1677550553.
 FoFCou: FMM=F IPFlag=           0 FMFlag=           0 FMFlg1=           0
         NFxFlg=           0 DoJE=F BraDBF=F KetDBF=F FulRan=T
         wScrn=  0.000000 ICntrl=     600 IOpCl=  0 I1Cent=           0 NGrid=           0
         NMat0=    1 NMatS0=  40755 NMatT0=    0 NMatD0=    1 NMtDS0=    0 NMtDT0=    0
 Symmetry not used in FoFCou.
 CCSD(T)
 =======
 Iterations=  50 Convergence= 0.100D-06
 Iteration Nr.   1
 **********************
 DD1Dir will call FoFMem   1 times, MxPair=       240
 NAB=   120 NAA=     0 NBB=     0.
 MP4(R+Q)=  0.22441083D-01
 Maximum subspace dimension=  5
 Norm of the A-vectors is  1.4393244D+00 conv= 1.00D-05.
 RLE energy=       -1.0106763126
 E3=       -0.95289299D-02        EUMP3=      -0.28397809151D+03
 E4(DQ)=    0.18633194D-02        UMP4(DQ)=   -0.28397622819D+03
 E4(SDQ)=  -0.96537377D-02        UMP4(SDQ)=  -0.28398774525D+03
 VARIATIONAL ENERGIES WITH THE FIRST-ORDER WAVEFUNCTION:
 DE(Corr)=  -1.0105018     E(Corr)=     -283.95509649    
 NORM(A)=   0.11264748D+01
 Iteration Nr.   2
 **********************
 DD1Dir will call FoFMem   1 times, MxPair=       240
 NAB=   120 NAA=     0 NBB=     0.
 Norm of the A-vectors is  5.3085660D-01 conv= 1.00D-05.
 RLE energy=       -1.0383715249
 DE(Corr)=  -1.0380534     E(CORR)=     -283.98264804     Delta=-2.76D-02
 NORM(A)=   0.11357837D+01
 Iteration Nr.   3
 **********************
 DD1Dir will call FoFMem   1 times, MxPair=       240
 NAB=   120 NAA=     0 NBB=     0.
 Norm of the A-vectors is  1.4449443D-01 conv= 1.00D-05.
 RLE energy=       -1.0398677543
 DE(Corr)=  -1.0375377     E(CORR)=     -283.98213243     Delta= 5.16D-04
 NORM(A)=   0.11382833D+01
 Iteration Nr.   4
 **********************
 DD1Dir will call FoFMem   1 times, MxPair=       240
 NAB=   120 NAA=     0 NBB=     0.
 Norm of the A-vectors is  5.9759333D-02 conv= 1.00D-05.
 RLE energy=       -1.0400362723
 DE(Corr)=  -1.0398532     E(CORR)=     -283.98444785     Delta=-2.32D-03
 NORM(A)=   0.11390424D+01
 Iteration Nr.   5
 **********************
 DD1Dir will call FoFMem   1 times, MxPair=       240
 NAB=   120 NAA=     0 NBB=     0.
 Norm of the A-vectors is  1.3720099D-02 conv= 1.00D-05.
 RLE energy=       -1.0401489129
 DE(Corr)=  -1.0401041     E(CORR)=     -283.98469877     Delta=-2.51D-04
 NORM(A)=   0.11392844D+01
 Iteration Nr.   6
 **********************
 DD1Dir will call FoFMem   1 times, MxPair=       240
 NAB=   120 NAA=     0 NBB=     0.
 Norm of the A-vectors is  6.9544908D-03 conv= 1.00D-05.
 RLE energy=       -1.0401384336
 DE(Corr)=  -1.0401268     E(CORR)=     -283.98472148     Delta=-2.27D-05
 NORM(A)=   0.11393174D+01
 Iteration Nr.   7
 **********************
 DD1Dir will call FoFMem   1 times, MxPair=       240
 NAB=   120 NAA=     0 NBB=     0.
 Norm of the A-vectors is  2.6888179D-03 conv= 1.00D-05.
 RLE energy=       -1.0401137158
 DE(Corr)=  -1.0401281     E(CORR)=     -283.98472276     Delta=-1.28D-06
 NORM(A)=   0.11393180D+01
 Iteration Nr.   8
 **********************
 DD1Dir will call FoFMem   1 times, MxPair=       240
 NAB=   120 NAA=     0 NBB=     0.
 Norm of the A-vectors is  9.7694077D-04 conv= 1.00D-05.
 RLE energy=       -1.0401263315
 DE(Corr)=  -1.0401273     E(CORR)=     -283.98472202     Delta= 7.37D-07
 NORM(A)=   0.11393228D+01
 Iteration Nr.   9
 **********************
 DD1Dir will call FoFMem   1 times, MxPair=       240
 NAB=   120 NAA=     0 NBB=     0.
 Norm of the A-vectors is  3.8255132D-04 conv= 1.00D-05.
 RLE energy=       -1.0401253895
 DE(Corr)=  -1.0401257     E(CORR)=     -283.98472039     Delta= 1.64D-06
 NORM(A)=   0.11393230D+01
 Iteration Nr.  10
 **********************
 DD1Dir will call FoFMem   1 times, MxPair=       240
 NAB=   120 NAA=     0 NBB=     0.
 Norm of the A-vectors is  1.7672433D-04 conv= 1.00D-05.
 RLE energy=       -1.0401264470
 DE(Corr)=  -1.0401266     E(CORR)=     -283.98472132     Delta=-9.30D-07
 NORM(A)=   0.11393234D+01
 Iteration Nr.  11
 **********************
 DD1Dir will call FoFMem   1 times, MxPair=       240
 NAB=   120 NAA=     0 NBB=     0.
 Norm of the A-vectors is  7.4708388D-05 conv= 1.00D-05.
 RLE energy=       -1.0401268827
 DE(Corr)=  -1.0401267     E(CORR)=     -283.98472139     Delta=-6.85D-08
 NORM(A)=   0.11393238D+01
 Iteration Nr.  12
 **********************
 DD1Dir will call FoFMem   1 times, MxPair=       240
 NAB=   120 NAA=     0 NBB=     0.
 Norm of the A-vectors is  3.5468281D-05 conv= 1.00D-05.
 RLE energy=       -1.0401270141
 DE(Corr)=  -1.0401269     E(CORR)=     -283.98472163     Delta=-2.46D-07
 NORM(A)=   0.11393240D+01
 Iteration Nr.  13
 **********************
 DD1Dir will call FoFMem   1 times, MxPair=       240
 NAB=   120 NAA=     0 NBB=     0.
 Norm of the A-vectors is  1.4546855D-05 conv= 1.00D-05.
 RLE energy=       -1.0401270253
 DE(Corr)=  -1.0401270     E(CORR)=     -283.98472168     Delta=-4.98D-08
 NORM(A)=   0.11393241D+01
 Iteration Nr.  14
 **********************
 DD1Dir will call FoFMem   1 times, MxPair=       240
 NAB=   120 NAA=     0 NBB=     0.
 Norm of the A-vectors is  7.1297520D-06 conv= 1.00D-05.
 RLE energy=       -1.0401270442
 DE(Corr)=  -1.0401270     E(CORR)=     -283.98472172     Delta=-4.23D-08
 NORM(A)=   0.11393241D+01
 CI/CC converged in   14 iterations to DelEn=-4.23D-08 Conv= 1.00D-07 ErrA1= 7.13D-06 Conv= 1.00D-05
 Largest amplitude= 3.33D-02
 T4(AAA)= -0.13284795D-02
 T4(AAB)= -0.21668377D-01
 T5(AAA)=  0.82861002D-04
 T5(AAB)=  0.95283098D-03
 Time for triples=    14358.84 seconds.
 T4(CCSD)= -0.45993713D-01
 T5(CCSD)=  0.20713840D-02
 CCSD(T)= -0.28402864405D+03
 Discarding MO integrals.
 Leave Link  913 at Fri Oct 14 00:31:28 2016, MaxMem= 13421772800 cpu:     29320.7
 (Enter /public/home/users/shu004/g09/l601.exe)
 Copying SCF densities to generalized density rwf, IOpCl= 0 IROHF=0.

 **********************************************************************

            Population analysis using the SCF density.

 **********************************************************************

 Orbital symmetries:
       Occupied  (A) (A) (A) (A) (A) (A) (A) (A) (A) (A) (A) (A)
                 (A) (A) (A) (A) (A) (A) (A) (A)
       Virtual   (A) (A) (A) (A) (A) (A) (A) (A) (A) (A) (A) (A)
                 (A) (A) (A) (A) (A) (A) (A) (A) (A) (A) (A) (A)
                 (A) (A) (A) (A) (A) (A) (A) (A) (A) (A) (A) (A)
                 (A) (A) (A) (A) (A) (A) (A) (A) (A) (A) (A) (A)
                 (A) (A) (A) (A) (A) (A) (A) (A) (A) (A) (A) (A)
                 (A) (A) (A) (A) (A) (A) (A) (A) (A) (A) (A) (A)
                 (A) (A) (A) (A) (A) (A) (A) (A) (A) (A) (A) (A)
                 (A) (A) (A) (A) (A) (A) (A) (A) (A) (A) (A) (A)
                 (A) (A) (A) (A) (A) (A) (A) (A) (A) (A) (A) (A)
                 (A) (A) (A) (A) (A) (A) (A) (A) (A) (A) (A) (A)
                 (A) (A) (A) (A) (A) (A) (A) (A) (A) (A) (A) (A)
                 (A) (A) (A) (A) (A) (A) (A) (A) (A) (A) (A) (A)
                 (A) (A) (A) (A) (A) (A) (A) (A) (A) (A) (A) (A)
                 (A) (A) (A) (A) (A) (A) (A) (A) (A) (A) (A) (A)
                 (A) (A) (A) (A) (A) (A) (A) (A) (A) (A) (A) (A)
                 (A) (A) (A) (A) (A) (A) (A) (A) (A) (A) (A) (A)
                 (A) (A) (A) (A) (A) (A) (A) (A) (A) (A) (A) (A)
                 (A) (A) (A) (A) (A) (A) (A) (A) (A) (A) (A) (A)
                 (A) (A) (A) (A) (A) (A) (A) (A) (A) (A) (A) (A)
                 (A) (A) (A) (A) (A) (A) (A) (A) (A) (A) (A) (A)
                 (A) (A) (A) (A) (A) (A) (A) (A) (A) (A) (A) (A)
                 (A) (A) (A) (A) (A) (A) (A) (A) (A) (A) (A) (A)
                 (A)
 The electronic state is 1-A.
 Alpha  occ. eigenvalues --  -20.59194 -20.52761 -15.58428 -11.37057 -11.28809
 Alpha  occ. eigenvalues --   -1.45091  -1.35330  -1.22204  -0.97736  -0.80901
 Alpha  occ. eigenvalues --   -0.73477  -0.71255  -0.67489  -0.62523  -0.62054
 Alpha  occ. eigenvalues --   -0.55980  -0.55601  -0.47159  -0.46254  -0.42214
 Alpha virt. eigenvalues --    0.11114   0.15212   0.16714   0.19417   0.20672
 Alpha virt. eigenvalues --    0.24442   0.30250   0.32025   0.35793   0.42056
 Alpha virt. eigenvalues --    0.43467   0.45101   0.47836   0.49717   0.52987
 Alpha virt. eigenvalues --    0.54936   0.55998   0.58476   0.59689   0.61609
 Alpha virt. eigenvalues --    0.63777   0.65390   0.66351   0.69617   0.71864
 Alpha virt. eigenvalues --    0.73780   0.76812   0.80464   0.82445   0.83602
 Alpha virt. eigenvalues --    0.88964   0.89857   0.93009   0.97155   0.98741
 Alpha virt. eigenvalues --    1.02437   1.07286   1.09997   1.14334   1.17167
 Alpha virt. eigenvalues --    1.19072   1.20619   1.23391   1.27258   1.29196
 Alpha virt. eigenvalues --    1.32148   1.33742   1.34972   1.39026   1.41975
 Alpha virt. eigenvalues --    1.44956   1.47387   1.50629   1.51608   1.54157
 Alpha virt. eigenvalues --    1.55387   1.61407   1.68474   1.71154   1.76401
 Alpha virt. eigenvalues --    1.80382   1.83839   1.87153   1.91101   1.94444
 Alpha virt. eigenvalues --    1.98571   2.02488   2.06187   2.22435   2.27370
 Alpha virt. eigenvalues --    2.32769   2.33883   2.37187   2.39016   2.41063
 Alpha virt. eigenvalues --    2.48506   2.55988   2.62608   2.70002   2.75092
 Alpha virt. eigenvalues --    2.78241   2.82676   2.82726   2.91988   2.97330
 Alpha virt. eigenvalues --    2.98806   3.04866   3.06793   3.14793   3.15872
 Alpha virt. eigenvalues --    3.17125   3.20135   3.21520   3.29202   3.33419
 Alpha virt. eigenvalues --    3.34954   3.35703   3.39672   3.40281   3.43884
 Alpha virt. eigenvalues --    3.47076   3.49166   3.52378   3.53873   3.54861
 Alpha virt. eigenvalues --    3.59385   3.62204   3.64042   3.66793   3.70280
 Alpha virt. eigenvalues --    3.72900   3.75329   3.76880   3.78943   3.83565
 Alpha virt. eigenvalues --    3.85599   3.87087   3.90568   3.95820   4.00797
 Alpha virt. eigenvalues --    4.02080   4.04515   4.10546   4.12518   4.15731
 Alpha virt. eigenvalues --    4.17684   4.18369   4.22963   4.25562   4.31242
 Alpha virt. eigenvalues --    4.31912   4.35256   4.40126   4.42472   4.43653
 Alpha virt. eigenvalues --    4.45509   4.49287   4.53729   4.55766   4.57107
 Alpha virt. eigenvalues --    4.60328   4.64463   4.70944   4.72539   4.75235
 Alpha virt. eigenvalues --    4.81591   4.88825   4.97559   5.04688   5.11505
 Alpha virt. eigenvalues --    5.15381   5.19523   5.22768   5.25093   5.28416
 Alpha virt. eigenvalues --    5.36090   5.46492   5.47628   5.52801   5.57225
 Alpha virt. eigenvalues --    5.62553   5.64804   5.65085   5.67385   5.75399
 Alpha virt. eigenvalues --    5.82188   5.84622   5.89637   5.99853   6.03790
 Alpha virt. eigenvalues --    6.07806   6.09146   6.14534   6.19526   6.20465
 Alpha virt. eigenvalues --    6.23594   6.33917   6.35453   6.44928   6.51920
 Alpha virt. eigenvalues --    6.64573   6.72580   6.85402   6.87528   6.96331
 Alpha virt. eigenvalues --    7.02208   7.11352   7.21853   7.25467   7.29680
 Alpha virt. eigenvalues --    7.30632   7.35637   7.37002   7.45395   7.53253
 Alpha virt. eigenvalues --    7.55557   7.64254   7.89188   8.00835   8.41130
 Alpha virt. eigenvalues --   15.33762  16.12333  16.20748  16.33693  16.46320
 Alpha virt. eigenvalues --   16.59719  16.82772  17.13327  21.05499  21.68620
 Alpha virt. eigenvalues --   21.94173  22.69404  26.18134  26.26288  26.44989
 Alpha virt. eigenvalues --   26.77020  27.19917  27.31896  29.06931  29.49579
 Alpha virt. eigenvalues --   39.24716  39.26543  39.27952  39.43766  39.57392
 Alpha virt. eigenvalues --   41.39535  41.45159  41.46841  41.52446  41.53498
 Alpha virt. eigenvalues --   41.65836  41.67055  41.70243  41.72434  41.73955
 Alpha virt. eigenvalues --   43.87941  43.89713  43.91444  43.95230  43.98174
 Alpha virt. eigenvalues --   44.00533  44.02869  44.10161  44.17659  44.18660
 Alpha virt. eigenvalues --   80.98048  81.53048  81.72154  81.74206  81.80780
 Alpha virt. eigenvalues --   81.94694  85.62666  86.56986 109.17343 109.61056
 Alpha virt. eigenvalues --  109.82165 116.33025 138.32915 138.40685 138.53758
 Alpha virt. eigenvalues --  138.80514 139.19294 139.28290 149.65167 150.12705
          Condensed to atoms (all electrons):
               1          2          3          4          5          6
     1  N    6.423457   0.386025   0.273941  -0.067585  -0.028008  -0.037123
     2  H    0.386025   0.535533  -0.035229   0.005417   0.005033  -0.009031
     3  C    0.273941  -0.035229   4.872020   0.325551   0.412821   0.434197
     4  C   -0.067585   0.005417   0.325551   4.237711  -0.029169  -0.051378
     5  H   -0.028008   0.005033   0.412821  -0.029169   0.557930  -0.012740
     6  H   -0.037123  -0.009031   0.434197  -0.051378  -0.012740   0.559616
     7  O    0.003344  -0.000114  -0.084954   0.754280   0.003156   0.007156
     8  O   -0.015248   0.000795  -0.095039   0.404920   0.001886   0.003670
     9  H    0.381431  -0.027649  -0.027343   0.005913  -0.010536   0.000190
    10  H    0.045729  -0.001792  -0.010821  -0.042997   0.001039   0.002311
               7          8          9         10
     1  N    0.003344  -0.015248   0.381431   0.045729
     2  H   -0.000114   0.000795  -0.027649  -0.001792
     3  C   -0.084954  -0.095039  -0.027343  -0.010821
     4  C    0.754280   0.404920   0.005913  -0.042997
     5  H    0.003156   0.001886  -0.010536   0.001039
     6  H    0.007156   0.003670   0.000190   0.002311
     7  O    7.823412  -0.078615  -0.000211   0.004969
     8  O   -0.078615   7.783074  -0.000102   0.329610
     9  H   -0.000211  -0.000102   0.534606  -0.001598
    10  H    0.004969   0.329610  -0.001598   0.420431
 Mulliken charges:
               1
     1  N   -0.365965
     2  H    0.141011
     3  C   -0.065144
     4  C    0.457336
     5  H    0.098589
     6  H    0.103133
     7  O   -0.432423
     8  O   -0.334952
     9  H    0.145298
    10  H    0.253118
 Sum of Mulliken charges =   0.00000
 Mulliken charges with hydrogens summed into heavy atoms:
               1
     1  N   -0.079656
     3  C    0.136577
     4  C    0.457336
     7  O   -0.432423
     8  O   -0.081834
 Electronic spatial extent (au):  <R**2>=            408.5519
 Charge=              0.0000 electrons
 Dipole moment (field-independent basis, Debye):
    X=             -5.8821    Y=             -0.7077    Z=             -0.0095  Tot=              5.9245
 Quadrupole moment (field-independent basis, Debye-Ang):
   XX=            -31.8631   YY=            -30.9699   ZZ=            -26.9291
   XY=              1.7396   XZ=              0.5537   YZ=             -0.4708
 Traceless Quadrupole moment (field-independent basis, Debye-Ang):
   XX=             -1.9424   YY=             -1.0492   ZZ=              2.9915
   XY=              1.7396   XZ=              0.5537   YZ=             -0.4708
 Octapole moment (field-independent basis, Debye-Ang**2):
  XXX=            -25.6548  YYY=              2.3016  ZZZ=             -0.8219  XYY=             -4.3529
  XXY=              2.5862  XXZ=              0.2548  XZZ=             -3.5993  YZZ=             -0.3882
  YYZ=              0.1035  XYZ=              0.5584
 Hexadecapole moment (field-independent basis, Debye-Ang**3):
 XXXX=           -292.5184 YYYY=           -135.5614 ZZZZ=            -33.2220 XXXY=              9.5559
 XXXZ=             -0.6686 YYYX=             -3.7397 YYYZ=              0.9767 ZZZX=              2.1646
 ZZZY=             -0.9231 XXYY=            -83.0062 XXZZ=            -48.5475 YYZZ=            -27.8793
 XXYZ=             -2.2654 YYXZ=             -0.0244 ZZXY=              0.4528
 N-N= 1.810042851162D+02 E-N=-1.028532788111D+03  KE= 2.826653854373D+02
 Leave Link  601 at Fri Oct 14 00:31:29 2016, MaxMem= 13421772800 cpu:         5.6
 (Enter /public/home/users/shu004/g09/l9999.exe)
 1\1\GINC-A750\SP\RCCSD(T)-FC\Gen\C2H5N1O2\SHU004\14-Oct-2016\0\\#P CCS
 D(T) gen\\start best geom PCCP paper\\0,1\N\H,1,1.0091\C,1,1.4609,2,11
 2.0646\C,3,1.5252,1,111.6045,2,101.3936,0\H,3,1.0891,1,110.2343,4,117.
 8521,0\H,3,1.089,1,113.9016,4,-121.6454,0\O,4,1.2001,3,122.6125,1,-171
 .93,0\O,4,1.3356,3,114.3853,1,8.8971,0\H,1,1.008,3,112.2608,4,-136.971
 5,0\H,8,0.976,4,105.7699,3,-1.3866,0\\Version=ES64L-G09RevD.01\State=1
 -A\HF=-282.9445947\MP2=-283.9685626\MP3=-283.9780915\MP4D=-283.9986693
 \MP4DQ=-283.9762282\MP4SDQ=-283.9877452\CCSD=-283.9847217\CCSD(T)=-284
 .0286441\RMSD=4.570e-09\PG=C01 [X(C2H5N1O2)]\\@


 YOU CAN LEAD A BOY TO COLLEGE....
 BUT YOU CANNOT MAKE HIM THINK....
           ELBERT HUBBARD
 Job cpu time:       0 days  8 hours 20 minutes  5.7 seconds.
 File lengths (MBytes):  RWF=  20274 Int=      0 D2E=      0 Chk=      5 Scr=      1
 Normal termination of Gaussian 09 at Fri Oct 14 00:31:29 2016.
