 Entering Gaussian System, Link 0=g09
 Input=ttc_Best_geom_CCSDT_CVTZ.gjf
 Output=ttc_Best_geom_CCSDT_CVTZ.log
 AtFile(1): /public/home/users/shu004/Basis_sets/cc-pCVTZ.gbs
            !  cc-pCVTZ  EMSL  Basis Set Exchange Library   10/10/16 1:18 AM
            ! Elements                             References
            ! --------                             ----------
            ! H     : T.H. Dunning, Jr. J. Chem. Phys. 90, 1007 (1989).
            ! He    : D.E. Woon and T.H. Dunning, Jr. J. Chem. Phys. 100, 2975 (1994).
            ! Li - Ne: T.H. Dunning, Jr. J. Chem. Phys. 90, 1007 (1989).
            ! Na - Mg: D.E. Woon and T.H. Dunning, Jr.  (to be published)
            ! Al - Ar: D.E. Woon and T.H. Dunning, Jr.  J. Chem. Phys. 98, 1358 (1993).
            ! Ca     : J. Koput and K.A. Peterson, J. Phys. Chem. A, 106, 9595 (2002).
            ! Sc - Zn: N.B. Balabanov and K.A. Peterson, J. Chem. Phys, 123, 064107 (2005)
            ! Ga - Kr: A.K. Wilson, D.E. Woon, K.A. Peterson, T.H. Dunning, Jr., J. Chem. Phys., 110, 7667 (1999)
            !
            ! Elements                             References
            ! --------                             ----------
            ! Li - Ne: T.H. Dunning, Jr. J. Chem. Phys. 90, 1007 (1989) and D. E. Woon and
            ! T.H. Dunning, Jr. J. Chem. Phys. 103, 4572 (1995).
            ! Al - Ar: K.A. Peterson and T.H. Dunning, Jr. J. Chem. Phys. 117, 10548 (2002)
            ! Ca     : K.A. Peterson (to be published)
            !
            -H  0
            cc-pVTZ
            ****
            C     0
            S   8   1.00
               8236.0000000              0.0005310
               1235.0000000              0.0041080
                280.8000000              0.0210870
                 79.2700000              0.0818530
                 25.5900000              0.2348170
                  8.9970000              0.4344010
                  3.3190000              0.3461290
                  0.3643000             -0.0089830
            S   8   1.00
               8236.0000000             -0.0001130
               1235.0000000             -0.0008780
                280.8000000             -0.0045400
                 79.2700000             -0.0181330
                 25.5900000             -0.0557600
                  8.9970000             -0.1268950
                  3.3190000             -0.1703520
                  0.3643000              0.5986840
            S   1   1.00
                  0.9059000              1.0000000
            S   1   1.00
                  0.1285000              1.0000000
            S   1   1.00
                  4.2920000              1.0000000
            S   1   1.00
                 11.8760000              1.0000000
            P   3   1.00
                 18.7100000              0.0140310
                  4.1330000              0.0868660
                  1.2000000              0.2902160
            P   1   1.00
                  0.3827000              1.0000000
            P   1   1.00
                  0.1209000              1.0000000
            P   1   1.00
                  8.7780000              1.0000000
            P   1   1.00
                 33.1900000              1.0000000
            D   1   1.00
                  1.0970000              1.0000000
            D   1   1.00
                  0.3180000              1.0000000
            D   1   1.00
                 14.8390000              1.0000000
            F   1   1.00
                  0.7610000              1.0000000
            ****
            N     0
            S   8   1.00
              11420.0000000              0.0005230
               1712.0000000              0.0040450
                389.3000000              0.0207750
                110.0000000              0.0807270
                 35.5700000              0.2330740
                 12.5400000              0.4335010
                  4.6440000              0.3474720
                  0.5118000             -0.0085080
            S   8   1.00
              11420.0000000             -0.0001150
               1712.0000000             -0.0008950
                389.3000000             -0.0046240
                110.0000000             -0.0185280
                 35.5700000             -0.0573390
                 12.5400000             -0.1320760
                  4.6440000             -0.1725100
                  0.5118000              0.5999440
            S   1   1.00
                  1.2930000              1.0000000
            S   1   1.00
                  0.1787000              1.0000000
            S   1   1.00
                  5.9520000              1.0000000
            S   1   1.00
                 16.2010000              1.0000000
            P   3   1.00
                 26.6300000              0.0146700
                  5.9480000              0.0917640
                  1.7420000              0.2986830
            P   1   1.00
                  0.5550000              1.0000000
            P   1   1.00
                  0.1725000              1.0000000
            P   1   1.00
                 11.8710000              1.0000000
            P   1   1.00
                 44.8490000              1.0000000
            D   1   1.00
                  1.6540000              1.0000000
            D   1   1.00
                  0.4690000              1.0000000
            D   1   1.00
                 14.2000000              1.0000000
            F   1   1.00
                  1.0930000              1.0000000
            ****
            O     0
            S   8   1.00
              15330.0000000              0.0005080
               2299.0000000              0.0039290
                522.4000000              0.0202430
                147.3000000              0.0791810
                 47.5500000              0.2306870
                 16.7600000              0.4331180
                  6.2070000              0.3502600
                  0.6882000             -0.0081540
            S   8   1.00
              15330.0000000             -0.0001150
               2299.0000000             -0.0008950
                522.4000000             -0.0046360
                147.3000000             -0.0187240
                 47.5500000             -0.0584630
                 16.7600000             -0.1364630
                  6.2070000             -0.1757400
                  0.6882000              0.6034180
            S   1   1.00
                  1.7520000              1.0000000
            S   1   1.00
                  0.2384000              1.0000000
            S   1   1.00
                  7.8450000              1.0000000
            S   1   1.00
                 21.0320000              1.0000000
            P   3   1.00
                 34.4600000              0.0159280
                  7.7490000              0.0997400
                  2.2800000              0.3104920
            P   1   1.00
                  0.7156000              1.0000000
            P   1   1.00
                  0.2140000              1.0000000
            P   1   1.00
                 15.1590000              1.0000000
            P   1   1.00
                 57.4370000              1.0000000
            D   1   1.00
                  2.3140000              1.0000000
            D   1   1.00
                  0.6450000              1.0000000
            D   1   1.00
                 15.8580000              1.0000000
            F   1   1.00
                  1.4280000              1.0000000
            ****
 Initial command:
 /public/home/users/shu004/g09/l1.exe "/public/home/users/shu004/scratch/Gau-12603.inp" -scrdir="/public/home/users/shu004/scratch/"
 Entering Link 1 = /public/home/users/shu004/g09/l1.exe PID=     12604.
  
 Copyright (c) 1988,1990,1992,1993,1995,1998,2003,2009,2013,
            Gaussian, Inc.  All Rights Reserved.
  
 This is part of the Gaussian(R) 09 program.  It is based on
 the Gaussian(R) 03 system (copyright 2003, Gaussian, Inc.),
 the Gaussian(R) 98 system (copyright 1998, Gaussian, Inc.),
 the Gaussian(R) 94 system (copyright 1995, Gaussian, Inc.),
 the Gaussian 92(TM) system (copyright 1992, Gaussian, Inc.),
 the Gaussian 90(TM) system (copyright 1990, Gaussian, Inc.),
 the Gaussian 88(TM) system (copyright 1988, Gaussian, Inc.),
 the Gaussian 86(TM) system (copyright 1986, Carnegie Mellon
 University), and the Gaussian 82(TM) system (copyright 1983,
 Carnegie Mellon University). Gaussian is a federally registered
 trademark of Gaussian, Inc.
  
 This software contains proprietary and confidential information,
 including trade secrets, belonging to Gaussian, Inc.
  
 This software is provided under written license and may be
 used, copied, transmitted, or stored only in accord with that
 written license.
  
 The following legend is applicable only to US Government
 contracts under FAR:
  
                    RESTRICTED RIGHTS LEGEND
  
 Use, reproduction and disclosure by the US Government is
 subject to restrictions as set forth in subparagraphs (a)
 and (c) of the Commercial Computer Software - Restricted
 Rights clause in FAR 52.227-19.
  
 Gaussian, Inc.
 340 Quinnipiac St., Bldg. 40, Wallingford CT 06492
  
  
 ---------------------------------------------------------------
 Warning -- This program may not be used in any manner that
 competes with the business of Gaussian, Inc. or will provide
 assistance to any competitor of Gaussian, Inc.  The licensee
 of this program is prohibited from giving any competitor of
 Gaussian, Inc. access to this program.  By using this program,
 the user acknowledges that Gaussian, Inc. is engaged in the
 business of creating and licensing software in the field of
 computational chemistry and represents and warrants to the
 licensee that it is not a competitor of Gaussian, Inc. and that
 it will not use this program in any manner prohibited above.
 ---------------------------------------------------------------
  

 Cite this work as:
 Gaussian 09, Revision D.01,
 M. J. Frisch, G. W. Trucks, H. B. Schlegel, G. E. Scuseria, 
 M. A. Robb, J. R. Cheeseman, G. Scalmani, V. Barone, B. Mennucci, 
 G. A. Petersson, H. Nakatsuji, M. Caricato, X. Li, H. P. Hratchian, 
 A. F. Izmaylov, J. Bloino, G. Zheng, J. L. Sonnenberg, M. Hada, 
 M. Ehara, K. Toyota, R. Fukuda, J. Hasegawa, M. Ishida, T. Nakajima, 
 Y. Honda, O. Kitao, H. Nakai, T. Vreven, J. A. Montgomery, Jr., 
 J. E. Peralta, F. Ogliaro, M. Bearpark, J. J. Heyd, E. Brothers, 
 K. N. Kudin, V. N. Staroverov, T. Keith, R. Kobayashi, J. Normand, 
 K. Raghavachari, A. Rendell, J. C. Burant, S. S. Iyengar, J. Tomasi, 
 M. Cossi, N. Rega, J. M. Millam, M. Klene, J. E. Knox, J. B. Cross, 
 V. Bakken, C. Adamo, J. Jaramillo, R. Gomperts, R. E. Stratmann, 
 O. Yazyev, A. J. Austin, R. Cammi, C. Pomelli, J. W. Ochterski, 
 R. L. Martin, K. Morokuma, V. G. Zakrzewski, G. A. Voth, 
 P. Salvador, J. J. Dannenberg, S. Dapprich, A. D. Daniels, 
 O. Farkas, J. B. Foresman, J. V. Ortiz, J. Cioslowski, 
 and D. J. Fox, Gaussian, Inc., Wallingford CT, 2013.
 
 ******************************************
 Gaussian 09:  ES64L-G09RevD.01 24-Apr-2013
                14-Oct-2016 
 ******************************************
 %chk=ttc_Best_geom_CCSDT_CVTZ.chk
 %nprocshared=12
 Will use up to   12 processors via shared memory.
 %mem=40GB
 --------------
 #P CCSD(T) gen
 --------------
 1/38=1/1;
 2/12=2,17=6,18=5,40=1/2;
 3/5=7,11=9,16=1,25=1,30=1/1,2,3;
 4//1;
 5/5=2,38=5/2;
 8/6=4,9=120000,10=1/1,4;
 9/5=7,14=2/13;
 6/7=2,8=2,9=2,10=2/1;
 99/5=1,9=1/99;
 Leave Link    1 at Fri Oct 14 22:41:08 2016, MaxMem=  5368709120 cpu:         1.7
 (Enter /public/home/users/shu004/g09/l101.exe)
 --------------------------
 start best geom PCCP paper
 --------------------------
 Symbolic Z-matrix:
 Charge =  0 Multiplicity = 1
 C
 O                    1    B1
 O                    1    B2       2    A1
 H                    2    B3       1    A2       3    D1       0
 C                    1    B4       3    A3       2    D2       0
 N                    5    B5       1    A4       3    D3       0
 H                    5    B6       1    A5       3    D4m      0
 H                    5    B6       1    A5       3    D4       0
 H                    6    B8       5    A7       1    D6m      0
 H                    6    B8       5    A7       1    D6       0
       Variables:
  B1                    1.35431                  
  B2                    1.19608                  
  A1                  120.26189                  
  B3                    0.96191                  
  A2                  110.63119                  
  B4                    1.52269                  
  A3                  124.62553                  
  B5                    1.44073                  
  A4                  115.35662                  
  B6                    1.09261                  
  A5                  107.80356                  
  D4m                -122.62433                  
  D4                  122.62433                  
  B8                    1.01113                  
  A7                  110.22995                  
  D6m                 -58.35404                  
  D6                   58.35404                  
  D1                  180.                       
  D2                  180.                       
  D3                    0.                       
 
 NAtoms=     10 NQM=       10 NQMF=       0 NMMI=      0 NMMIF=      0
                NMic=       0 NMicF=      0.
                    Isotopes and Nuclear Properties:
 (Nuclear quadrupole moments (NQMom) in fm**2, nuclear magnetic moments (NMagM)
  in nuclear magnetons)

  Atom         1           2           3           4           5           6           7           8           9          10
 IAtWgt=          12          16          16           1          12          14           1           1           1           1
 AtmWgt=  12.0000000  15.9949146  15.9949146   1.0078250  12.0000000  14.0030740   1.0078250   1.0078250   1.0078250   1.0078250
 NucSpn=           0           0           0           1           0           2           1           1           1           1
 AtZEff=   0.0000000   0.0000000   0.0000000   0.0000000   0.0000000   0.0000000   0.0000000   0.0000000   0.0000000   0.0000000
 NQMom=    0.0000000   0.0000000   0.0000000   0.0000000   0.0000000   2.0440000   0.0000000   0.0000000   0.0000000   0.0000000
 NMagM=    0.0000000   0.0000000   0.0000000   2.7928460   0.0000000   0.4037610   2.7928460   2.7928460   2.7928460   2.7928460
 AtZNuc=   6.0000000   8.0000000   8.0000000   1.0000000   6.0000000   7.0000000   1.0000000   1.0000000   1.0000000   1.0000000
 Leave Link  101 at Fri Oct 14 22:41:08 2016, MaxMem=  5368709120 cpu:         3.5
 (Enter /public/home/users/shu004/g09/l202.exe)
                          Input orientation:                          
 ---------------------------------------------------------------------
 Center     Atomic      Atomic             Coordinates (Angstroms)
 Number     Number       Type             X           Y           Z
 ---------------------------------------------------------------------
      1          6           0        0.000000    0.000000    0.000000
      2          8           0        0.000000    0.000000    1.354310
      3          8           0        1.033091    0.000000   -0.602768
      4          1           0       -0.900217    0.000000    1.693239
      5          6           0       -1.378759    0.000000   -0.646227
      6          7           0       -1.384895    0.000000   -2.086944
      7          1           0       -1.919274    0.876153   -0.280172
      8          1           0       -1.919274   -0.876153   -0.280172
      9          1           0       -0.888606    0.807682   -2.438698
     10          1           0       -0.888606   -0.807682   -2.438698
 ---------------------------------------------------------------------
                    Distance matrix (angstroms):
                    1          2          3          4          5
     1  C    0.000000
     2  O    1.354310   0.000000
     3  O    1.196080   2.213015   0.000000
     4  H    1.917667   0.961906   3.001554   0.000000
     5  C    1.522690   2.429634   2.412242   2.387907   0.000000
     6  N    2.504650   3.709469   2.837153   3.811128   1.440730
     7  H    2.128322   2.668855   3.096477   2.387566   1.092610
     8  H    2.128322   2.668855   3.096477   2.387566   1.092610
     9  H    2.718312   3.978553   2.777753   4.210153   2.026216
    10  H    2.718312   3.978553   2.777753   4.210153   2.026216
                    6          7          8          9         10
     6  N    0.000000
     7  H    2.077890   0.000000
     8  H    2.077890   1.752306   0.000000
     9  H    1.011130   2.392948   2.925203   0.000000
    10  H    1.011130   2.925203   2.392948   1.615364   0.000000
 Stoichiometry    C2H5NO2
 Framework group  CS[SG(C2HNO2),X(H4)]
 Deg. of freedom    15
 Full point group                 CS      NOp   2
 Largest Abelian subgroup         CS      NOp   2
 Largest concise Abelian subgroup CS      NOp   2
                         Standard orientation:                         
 ---------------------------------------------------------------------
 Center     Atomic      Atomic             Coordinates (Angstroms)
 Number     Number       Type             X           Y           Z
 ---------------------------------------------------------------------
      1          6           0        0.000000    0.573396    0.000000
      2          8           0        0.957640    1.531040    0.000000
      3          8           0       -1.156728    0.877678    0.000000
      4          1           0        1.833849    1.134152    0.000000
      5          6           0        0.517981   -0.858483    0.000000
      6          7           0       -0.496418   -1.881566    0.000000
      7          1           0        1.159024   -0.981844    0.876153
      8          1           0        1.159024   -0.981844   -0.876153
      9          1           0       -1.096075   -1.779366    0.807682
     10          1           0       -1.096075   -1.779366   -0.807682
 ---------------------------------------------------------------------
 Rotational constants (GHZ):     10.2385391      3.9139579      2.9253533
 Leave Link  202 at Fri Oct 14 22:41:08 2016, MaxMem=  5368709120 cpu:         0.7
 (Enter /public/home/users/shu004/g09/l301.exe)
 General basis read from cards:  (5D, 7F)
 Centers:       4      7      8      9     10
 cc-pVTZ
 ****
 Centers:       1      5
 S 8 1.00
     Exponent=  8.2360000000D+03 Coefficients=  5.3100000000D-04
     Exponent=  1.2350000000D+03 Coefficients=  4.1080000000D-03
     Exponent=  2.8080000000D+02 Coefficients=  2.1087000000D-02
     Exponent=  7.9270000000D+01 Coefficients=  8.1853000000D-02
     Exponent=  2.5590000000D+01 Coefficients=  2.3481700000D-01
     Exponent=  8.9970000000D+00 Coefficients=  4.3440100000D-01
     Exponent=  3.3190000000D+00 Coefficients=  3.4612900000D-01
     Exponent=  3.6430000000D-01 Coefficients= -8.9830000000D-03
 S 8 1.00
     Exponent=  8.2360000000D+03 Coefficients= -1.1300000000D-04
     Exponent=  1.2350000000D+03 Coefficients= -8.7800000000D-04
     Exponent=  2.8080000000D+02 Coefficients= -4.5400000000D-03
     Exponent=  7.9270000000D+01 Coefficients= -1.8133000000D-02
     Exponent=  2.5590000000D+01 Coefficients= -5.5760000000D-02
     Exponent=  8.9970000000D+00 Coefficients= -1.2689500000D-01
     Exponent=  3.3190000000D+00 Coefficients= -1.7035200000D-01
     Exponent=  3.6430000000D-01 Coefficients=  5.9868400000D-01
 S 1 1.00
     Exponent=  9.0590000000D-01 Coefficients=  1.0000000000D+00
 S 1 1.00
     Exponent=  1.2850000000D-01 Coefficients=  1.0000000000D+00
 S 1 1.00
     Exponent=  4.2920000000D+00 Coefficients=  1.0000000000D+00
 S 1 1.00
     Exponent=  1.1876000000D+01 Coefficients=  1.0000000000D+00
 P 3 1.00
     Exponent=  1.8710000000D+01 Coefficients=  1.4031000000D-02
     Exponent=  4.1330000000D+00 Coefficients=  8.6866000000D-02
     Exponent=  1.2000000000D+00 Coefficients=  2.9021600000D-01
 P 1 1.00
     Exponent=  3.8270000000D-01 Coefficients=  1.0000000000D+00
 P 1 1.00
     Exponent=  1.2090000000D-01 Coefficients=  1.0000000000D+00
 P 1 1.00
     Exponent=  8.7780000000D+00 Coefficients=  1.0000000000D+00
 P 1 1.00
     Exponent=  3.3190000000D+01 Coefficients=  1.0000000000D+00
 D 1 1.00
     Exponent=  1.0970000000D+00 Coefficients=  1.0000000000D+00
 D 1 1.00
     Exponent=  3.1800000000D-01 Coefficients=  1.0000000000D+00
 D 1 1.00
     Exponent=  1.4839000000D+01 Coefficients=  1.0000000000D+00
 F 1 1.00
     Exponent=  7.6100000000D-01 Coefficients=  1.0000000000D+00
 ****
 Centers:       6
 S 8 1.00
     Exponent=  1.1420000000D+04 Coefficients=  5.2300000000D-04
     Exponent=  1.7120000000D+03 Coefficients=  4.0450000000D-03
     Exponent=  3.8930000000D+02 Coefficients=  2.0775000000D-02
     Exponent=  1.1000000000D+02 Coefficients=  8.0727000000D-02
     Exponent=  3.5570000000D+01 Coefficients=  2.3307400000D-01
     Exponent=  1.2540000000D+01 Coefficients=  4.3350100000D-01
     Exponent=  4.6440000000D+00 Coefficients=  3.4747200000D-01
     Exponent=  5.1180000000D-01 Coefficients= -8.5080000000D-03
 S 8 1.00
     Exponent=  1.1420000000D+04 Coefficients= -1.1500000000D-04
     Exponent=  1.7120000000D+03 Coefficients= -8.9500000000D-04
     Exponent=  3.8930000000D+02 Coefficients= -4.6240000000D-03
     Exponent=  1.1000000000D+02 Coefficients= -1.8528000000D-02
     Exponent=  3.5570000000D+01 Coefficients= -5.7339000000D-02
     Exponent=  1.2540000000D+01 Coefficients= -1.3207600000D-01
     Exponent=  4.6440000000D+00 Coefficients= -1.7251000000D-01
     Exponent=  5.1180000000D-01 Coefficients=  5.9994400000D-01
 S 1 1.00
     Exponent=  1.2930000000D+00 Coefficients=  1.0000000000D+00
 S 1 1.00
     Exponent=  1.7870000000D-01 Coefficients=  1.0000000000D+00
 S 1 1.00
     Exponent=  5.9520000000D+00 Coefficients=  1.0000000000D+00
 S 1 1.00
     Exponent=  1.6201000000D+01 Coefficients=  1.0000000000D+00
 P 3 1.00
     Exponent=  2.6630000000D+01 Coefficients=  1.4670000000D-02
     Exponent=  5.9480000000D+00 Coefficients=  9.1764000000D-02
     Exponent=  1.7420000000D+00 Coefficients=  2.9868300000D-01
 P 1 1.00
     Exponent=  5.5500000000D-01 Coefficients=  1.0000000000D+00
 P 1 1.00
     Exponent=  1.7250000000D-01 Coefficients=  1.0000000000D+00
 P 1 1.00
     Exponent=  1.1871000000D+01 Coefficients=  1.0000000000D+00
 P 1 1.00
     Exponent=  4.4849000000D+01 Coefficients=  1.0000000000D+00
 D 1 1.00
     Exponent=  1.6540000000D+00 Coefficients=  1.0000000000D+00
 D 1 1.00
     Exponent=  4.6900000000D-01 Coefficients=  1.0000000000D+00
 D 1 1.00
     Exponent=  1.4200000000D+01 Coefficients=  1.0000000000D+00
 F 1 1.00
     Exponent=  1.0930000000D+00 Coefficients=  1.0000000000D+00
 ****
 Centers:       2      3
 S 8 1.00
     Exponent=  1.5330000000D+04 Coefficients=  5.0800000000D-04
     Exponent=  2.2990000000D+03 Coefficients=  3.9290000000D-03
     Exponent=  5.2240000000D+02 Coefficients=  2.0243000000D-02
     Exponent=  1.4730000000D+02 Coefficients=  7.9181000000D-02
     Exponent=  4.7550000000D+01 Coefficients=  2.3068700000D-01
     Exponent=  1.6760000000D+01 Coefficients=  4.3311800000D-01
     Exponent=  6.2070000000D+00 Coefficients=  3.5026000000D-01
     Exponent=  6.8820000000D-01 Coefficients= -8.1540000000D-03
 S 8 1.00
     Exponent=  1.5330000000D+04 Coefficients= -1.1500000000D-04
     Exponent=  2.2990000000D+03 Coefficients= -8.9500000000D-04
     Exponent=  5.2240000000D+02 Coefficients= -4.6360000000D-03
     Exponent=  1.4730000000D+02 Coefficients= -1.8724000000D-02
     Exponent=  4.7550000000D+01 Coefficients= -5.8463000000D-02
     Exponent=  1.6760000000D+01 Coefficients= -1.3646300000D-01
     Exponent=  6.2070000000D+00 Coefficients= -1.7574000000D-01
     Exponent=  6.8820000000D-01 Coefficients=  6.0341800000D-01
 S 1 1.00
     Exponent=  1.7520000000D+00 Coefficients=  1.0000000000D+00
 S 1 1.00
     Exponent=  2.3840000000D-01 Coefficients=  1.0000000000D+00
 S 1 1.00
     Exponent=  7.8450000000D+00 Coefficients=  1.0000000000D+00
 S 1 1.00
     Exponent=  2.1032000000D+01 Coefficients=  1.0000000000D+00
 P 3 1.00
     Exponent=  3.4460000000D+01 Coefficients=  1.5928000000D-02
     Exponent=  7.7490000000D+00 Coefficients=  9.9740000000D-02
     Exponent=  2.2800000000D+00 Coefficients=  3.1049200000D-01
 P 1 1.00
     Exponent=  7.1560000000D-01 Coefficients=  1.0000000000D+00
 P 1 1.00
     Exponent=  2.1400000000D-01 Coefficients=  1.0000000000D+00
 P 1 1.00
     Exponent=  1.5159000000D+01 Coefficients=  1.0000000000D+00
 P 1 1.00
     Exponent=  5.7437000000D+01 Coefficients=  1.0000000000D+00
 D 1 1.00
     Exponent=  2.3140000000D+00 Coefficients=  1.0000000000D+00
 D 1 1.00
     Exponent=  6.4500000000D-01 Coefficients=  1.0000000000D+00
 D 1 1.00
     Exponent=  1.5858000000D+01 Coefficients=  1.0000000000D+00
 F 1 1.00
     Exponent=  1.4280000000D+00 Coefficients=  1.0000000000D+00
 ****
 Ernie: Thresh=  0.10000D-02 Tol=  0.10000D-05 Strict=F.
 Ernie:  15 primitive shells out of 195 were deleted.
 There are   211 symmetry adapted cartesian basis functions of A'  symmetry.
 There are   109 symmetry adapted cartesian basis functions of A"  symmetry.
 There are   183 symmetry adapted basis functions of A'  symmetry.
 There are   102 symmetry adapted basis functions of A"  symmetry.
   285 basis functions,   415 primitive gaussians,   320 cartesian basis functions
    20 alpha electrons       20 beta electrons
       nuclear repulsion energy       179.6626212364 Hartrees.
 IExCor=    0 DFT=F Ex=HF Corr=None ExCW=0 ScaHFX=  1.000000
 ScaDFX=  1.000000  1.000000  1.000000  1.000000 ScalE2=  1.000000  1.000000
 IRadAn=      0 IRanWt=     -1 IRanGd=            0 ICorTp=0 IEmpDi=  4
 NAtoms=   10 NActive=   10 NUniq=    8 SFac= 1.56D+00 NAtFMM=   60 NAOKFM=F Big=F
 Integral buffers will be    131072 words long.
 Raffenetti 1 integral format.
 Two-electron integral symmetry is turned on.
 Leave Link  301 at Fri Oct 14 22:41:09 2016, MaxMem=  5368709120 cpu:         3.1
 (Enter /public/home/users/shu004/g09/l302.exe)
 NPDir=0 NMtPBC=     1 NCelOv=     1 NCel=       1 NClECP=     1 NCelD=      1
         NCelK=      1 NCelE2=     1 NClLst=     1 CellRange=     0.0.
 One-electron integrals computed using PRISM.
 One-electron integral symmetry used in STVInt
 NBasis=   285 RedAO= T EigKep=  5.72D-04  NBF=   183   102
 NBsUse=   285 1.00D-06 EigRej= -1.00D+00 NBFU=   183   102
 Leave Link  302 at Fri Oct 14 22:41:09 2016, MaxMem=  5368709120 cpu:         4.3
 (Enter /public/home/users/shu004/g09/l303.exe)
 DipDrv:  MaxL=1.
 Leave Link  303 at Fri Oct 14 22:41:10 2016, MaxMem=  5368709120 cpu:         1.3
 (Enter /public/home/users/shu004/g09/l401.exe)
 ExpMin= 1.03D-01 ExpMax= 1.53D+04 ExpMxC= 5.22D+02 IAcc=1 IRadAn=         1 AccDes= 0.00D+00
 Harris functional with IExCor=  205 and IRadAn=       1 diagonalized for initial guess.
 HarFok:  IExCor=  205 AccDes= 0.00D+00 IRadAn=         1 IDoV= 1 UseB2=F ITyADJ=14
 ICtDFT=  3500011 ScaDFX=  1.000000  1.000000  1.000000  1.000000
 FoFCou: FMM=F IPFlag=           0 FMFlag=      100000 FMFlg1=           0
         NFxFlg=           0 DoJE=T BraDBF=F KetDBF=T FulRan=T
         wScrn=  0.000000 ICntrl=     500 IOpCl=  0 I1Cent=   200000004 NGrid=           0
         NMat0=    1 NMatS0=      1 NMatT0=    0 NMatD0=    1 NMtDS0=    0 NMtDT0=    0
 Petite list used in FoFCou.
 Harris En= -283.229982852518    
 JPrj=0 DoOrth=F DoCkMO=F.
 Initial guess orbital symmetries:
       Occupied  (A') (A') (A') (A') (A') (A') (A') (A') (A') (A')
                 (A') (A") (A') (A') (A") (A') (A") (A") (A') (A')
       Virtual   (A") (A') (A') (A") (A') (A") (A') (A') (A') (A')
                 (A") (A') (A') (A") (A') (A') (A') (A") (A") (A')
                 (A') (A') (A') (A') (A") (A") (A') (A') (A") (A')
                 (A") (A') (A') (A') (A") (A") (A") (A') (A') (A')
                 (A") (A') (A') (A") (A") (A') (A') (A") (A") (A')
                 (A') (A') (A") (A') (A') (A") (A') (A') (A') (A")
                 (A') (A") (A') (A') (A') (A") (A") (A') (A") (A')
                 (A') (A") (A') (A') (A") (A') (A") (A') (A') (A')
                 (A") (A') (A') (A') (A') (A") (A") (A') (A') (A')
                 (A") (A") (A') (A") (A') (A') (A") (A") (A') (A')
                 (A") (A') (A') (A") (A') (A") (A") (A") (A') (A")
                 (A") (A') (A') (A") (A') (A") (A') (A') (A") (A')
                 (A") (A') (A') (A") (A') (A') (A") (A") (A") (A')
                 (A") (A') (A') (A') (A') (A") (A') (A") (A') (A')
                 (A') (A") (A") (A') (A") (A') (A') (A') (A') (A")
                 (A') (A') (A") (A') (A") (A') (A') (A") (A') (A')
                 (A") (A") (A') (A') (A") (A') (A') (A') (A') (A")
                 (A') (A") (A") (A') (A') (A') (A") (A') (A") (A")
                 (A") (A') (A") (A') (A") (A') (A") (A') (A') (A")
                 (A') (A") (A") (A') (A') (A') (A') (A') (A') (A')
                 (A") (A') (A') (A') (A") (A') (A') (A') (A') (A")
                 (A') (A') (A") (A") (A') (A') (A') (A') (A') (A')
                 (A') (A') (A") (A') (A") (A') (A') (A') (A') (A")
                 (A") (A") (A') (A") (A') (A') (A") (A') (A") (A")
                 (A') (A") (A') (A') (A') (A") (A') (A') (A') (A")
                 (A') (A') (A') (A') (A") (A') (A') (A") (A") (A')
                 (A') (A') (A') (A') (A')
 The electronic state of the initial guess is 1-A'.
 Leave Link  401 at Fri Oct 14 22:41:10 2016, MaxMem=  5368709120 cpu:         5.0
 (Enter /public/home/users/shu004/g09/l502.exe)
 Closed shell SCF:
 Using DIIS extrapolation, IDIIS=  1040.
 Integral symmetry usage will be decided dynamically.
 Keep R1 ints in memory in symmetry-blocked form, NReq=1249114984.
 IVT=      332314 IEndB=      332314 NGot=  5368709120 MDV=  4950099812
 LenX=  4950099812 LenY=  4949996971
 Requested convergence on RMS density matrix=1.00D-08 within 128 cycles.
 Requested convergence on MAX density matrix=1.00D-06.
 Requested convergence on             energy=1.00D-06.
 No special actions if energy rises.
 FoFCou: FMM=F IPFlag=           0 FMFlag=           0 FMFlg1=           0
         NFxFlg=           0 DoJE=F BraDBF=F KetDBF=F FulRan=T
         wScrn=  0.000000 ICntrl=     600 IOpCl=  0 I1Cent=           0 NGrid=           0
         NMat0=    1 NMatS0=  40755 NMatT0=    0 NMatD0=    1 NMtDS0=    0 NMtDT0=    0
 Petite list used in FoFCou.

 Cycle   1  Pass 1  IDiag  1:
 E= -282.691382169005    
 DIIS: error= 5.32D-02 at cycle   1 NSaved=   1.
 NSaved= 1 IEnMin= 1 EnMin= -282.691382169005     IErMin= 1 ErrMin= 5.32D-02
 ErrMax= 5.32D-02  0.00D+00 EMaxC= 1.00D-01 BMatC= 6.89D-01 BMatP= 6.89D-01
 IDIUse=3 WtCom= 4.68D-01 WtEn= 5.32D-01
 Coeff-Com:  0.100D+01
 Coeff-En:   0.100D+01
 Coeff:      0.100D+01
 Gap=     0.450 Goal=   None    Shift=    0.000
 GapD=    0.450 DampG=2.000 DampE=0.500 DampFc=1.0000 IDamp=-1.
 RMSDP=1.60D-03 MaxDP=7.99D-02              OVMax= 1.29D-01

 Cycle   2  Pass 1  IDiag  1:
 E= -282.882463059267     Delta-E=       -0.191080890262 Rises=F Damp=F
 DIIS: error= 1.92D-02 at cycle   2 NSaved=   2.
 NSaved= 2 IEnMin= 2 EnMin= -282.882463059267     IErMin= 2 ErrMin= 1.92D-02
 ErrMax= 1.92D-02  0.00D+00 EMaxC= 1.00D-01 BMatC= 8.71D-02 BMatP= 6.89D-01
 IDIUse=3 WtCom= 8.08D-01 WtEn= 1.92D-01
 Coeff-Com:  0.186D+00 0.814D+00
 Coeff-En:   0.000D+00 0.100D+01
 Coeff:      0.150D+00 0.850D+00
 Gap=     0.565 Goal=   None    Shift=    0.000
 RMSDP=9.28D-04 MaxDP=6.23D-02 DE=-1.91D-01 OVMax= 5.77D-02

 Cycle   3  Pass 1  IDiag  1:
 E= -282.930314673127     Delta-E=       -0.047851613861 Rises=F Damp=F
 DIIS: error= 1.26D-02 at cycle   3 NSaved=   3.
 NSaved= 3 IEnMin= 3 EnMin= -282.930314673127     IErMin= 3 ErrMin= 1.26D-02
 ErrMax= 1.26D-02  0.00D+00 EMaxC= 1.00D-01 BMatC= 1.52D-02 BMatP= 8.71D-02
 IDIUse=3 WtCom= 8.74D-01 WtEn= 1.26D-01
 Coeff-Com: -0.244D-01 0.269D+00 0.755D+00
 Coeff-En:   0.000D+00 0.000D+00 0.100D+01
 Coeff:     -0.214D-01 0.235D+00 0.786D+00
 Gap=     0.532 Goal=   None    Shift=    0.000
 RMSDP=2.05D-04 MaxDP=1.03D-02 DE=-4.79D-02 OVMax= 3.20D-02

 Cycle   4  Pass 1  IDiag  1:
 E= -282.939698305018     Delta-E=       -0.009383631891 Rises=F Damp=F
 DIIS: error= 2.02D-03 at cycle   4 NSaved=   4.
 NSaved= 4 IEnMin= 4 EnMin= -282.939698305018     IErMin= 4 ErrMin= 2.02D-03
 ErrMax= 2.02D-03  0.00D+00 EMaxC= 1.00D-01 BMatC= 6.43D-04 BMatP= 1.52D-02
 IDIUse=3 WtCom= 9.80D-01 WtEn= 2.02D-02
 Coeff-Com: -0.110D-01 0.548D-01 0.261D+00 0.695D+00
 Coeff-En:   0.000D+00 0.000D+00 0.000D+00 0.100D+01
 Coeff:     -0.108D-01 0.537D-01 0.256D+00 0.701D+00
 Gap=     0.529 Goal=   None    Shift=    0.000
 RMSDP=6.30D-05 MaxDP=3.25D-03 DE=-9.38D-03 OVMax= 5.84D-03

 Cycle   5  Pass 1  IDiag  1:
 E= -282.940193897376     Delta-E=       -0.000495592358 Rises=F Damp=F
 DIIS: error= 9.12D-04 at cycle   5 NSaved=   5.
 NSaved= 5 IEnMin= 5 EnMin= -282.940193897376     IErMin= 5 ErrMin= 9.12D-04
 ErrMax= 9.12D-04  0.00D+00 EMaxC= 1.00D-01 BMatC= 2.97D-05 BMatP= 6.43D-04
 IDIUse=3 WtCom= 9.91D-01 WtEn= 9.12D-03
 Coeff-Com:  0.229D-02-0.258D-01-0.771D-01 0.194D-01 0.108D+01
 Coeff-En:   0.000D+00 0.000D+00 0.000D+00 0.000D+00 0.100D+01
 Coeff:      0.226D-02-0.256D-01-0.764D-01 0.192D-01 0.108D+01
 Gap=     0.530 Goal=   None    Shift=    0.000
 RMSDP=3.18D-05 MaxDP=1.65D-03 DE=-4.96D-04 OVMax= 3.95D-03

 Cycle   6  Pass 1  IDiag  1:
 E= -282.940249486053     Delta-E=       -0.000055588677 Rises=F Damp=F
 DIIS: error= 1.42D-04 at cycle   6 NSaved=   6.
 NSaved= 6 IEnMin= 6 EnMin= -282.940249486053     IErMin= 6 ErrMin= 1.42D-04
 ErrMax= 1.42D-04  0.00D+00 EMaxC= 1.00D-01 BMatC= 4.38D-06 BMatP= 2.97D-05
 IDIUse=3 WtCom= 9.99D-01 WtEn= 1.42D-03
 Coeff-Com:  0.145D-02-0.107D-01-0.394D-01-0.739D-01 0.195D+00 0.927D+00
 Coeff-En:   0.000D+00 0.000D+00 0.000D+00 0.000D+00 0.000D+00 0.100D+01
 Coeff:      0.145D-02-0.106D-01-0.393D-01-0.738D-01 0.195D+00 0.928D+00
 Gap=     0.530 Goal=   None    Shift=    0.000
 RMSDP=1.27D-05 MaxDP=7.28D-04 DE=-5.56D-05 OVMax= 1.12D-03

 Cycle   7  Pass 1  IDiag  1:
 E= -282.940257343785     Delta-E=       -0.000007857732 Rises=F Damp=F
 DIIS: error= 6.92D-05 at cycle   7 NSaved=   7.
 NSaved= 7 IEnMin= 7 EnMin= -282.940257343785     IErMin= 7 ErrMin= 6.92D-05
 ErrMax= 6.92D-05  0.00D+00 EMaxC= 1.00D-01 BMatC= 5.83D-07 BMatP= 4.38D-06
 IDIUse=1 WtCom= 1.00D+00 WtEn= 0.00D+00
 Coeff-Com: -0.201D-03 0.271D-02 0.941D-02-0.134D-01-0.124D+00 0.275D-01
 Coeff-Com:  0.110D+01
 Coeff:     -0.201D-03 0.271D-02 0.941D-02-0.134D-01-0.124D+00 0.275D-01
 Coeff:      0.110D+01
 Gap=     0.530 Goal=   None    Shift=    0.000
 RMSDP=4.69D-06 MaxDP=1.92D-04 DE=-7.86D-06 OVMax= 7.59D-04

 Cycle   8  Pass 1  IDiag  1:
 E= -282.940258808723     Delta-E=       -0.000001464938 Rises=F Damp=F
 DIIS: error= 2.24D-05 at cycle   8 NSaved=   8.
 NSaved= 8 IEnMin= 8 EnMin= -282.940258808723     IErMin= 8 ErrMin= 2.24D-05
 ErrMax= 2.24D-05  0.00D+00 EMaxC= 1.00D-01 BMatC= 8.27D-08 BMatP= 5.83D-07
 IDIUse=1 WtCom= 1.00D+00 WtEn= 0.00D+00
 Coeff-Com: -0.174D-03 0.127D-02 0.471D-02 0.598D-02-0.955D-02-0.118D+00
 Coeff-Com: -0.103D+00 0.122D+01
 Coeff:     -0.174D-03 0.127D-02 0.471D-02 0.598D-02-0.955D-02-0.118D+00
 Coeff:     -0.103D+00 0.122D+01
 Gap=     0.530 Goal=   None    Shift=    0.000
 RMSDP=1.87D-06 MaxDP=7.40D-05 DE=-1.46D-06 OVMax= 3.10D-04

 Cycle   9  Pass 1  IDiag  1:
 E= -282.940259027898     Delta-E=       -0.000000219175 Rises=F Damp=F
 DIIS: error= 1.00D-05 at cycle   9 NSaved=   9.
 NSaved= 9 IEnMin= 9 EnMin= -282.940259027898     IErMin= 9 ErrMin= 1.00D-05
 ErrMax= 1.00D-05  0.00D+00 EMaxC= 1.00D-01 BMatC= 1.08D-08 BMatP= 8.27D-08
 IDIUse=1 WtCom= 1.00D+00 WtEn= 0.00D+00
 Coeff-Com: -0.108D-04-0.810D-04-0.226D-03 0.222D-02 0.164D-01-0.285D-01
 Coeff-Com: -0.165D+00 0.240D+00 0.936D+00
 Coeff:     -0.108D-04-0.810D-04-0.226D-03 0.222D-02 0.164D-01-0.285D-01
 Coeff:     -0.165D+00 0.240D+00 0.936D+00
 Gap=     0.530 Goal=   None    Shift=    0.000
 RMSDP=6.08D-07 MaxDP=2.58D-05 DE=-2.19D-07 OVMax= 9.18D-05

 Cycle  10  Pass 1  IDiag  1:
 E= -282.940259049738     Delta-E=       -0.000000021839 Rises=F Damp=F
 DIIS: error= 2.72D-06 at cycle  10 NSaved=  10.
 NSaved=10 IEnMin=10 EnMin= -282.940259049738     IErMin=10 ErrMin= 2.72D-06
 ErrMax= 2.72D-06  0.00D+00 EMaxC= 1.00D-01 BMatC= 9.77D-10 BMatP= 1.08D-08
 IDIUse=1 WtCom= 1.00D+00 WtEn= 0.00D+00
 Coeff-Com:  0.222D-04-0.168D-03-0.601D-03-0.113D-02 0.175D-02 0.148D-01
 Coeff-Com:  0.188D-01-0.166D+00-0.209D-01 0.115D+01
 Coeff:      0.222D-04-0.168D-03-0.601D-03-0.113D-02 0.175D-02 0.148D-01
 Coeff:      0.188D-01-0.166D+00-0.209D-01 0.115D+01
 Gap=     0.530 Goal=   None    Shift=    0.000
 RMSDP=2.24D-07 MaxDP=8.61D-06 DE=-2.18D-08 OVMax= 2.63D-05

 Cycle  11  Pass 1  IDiag  1:
 E= -282.940259052037     Delta-E=       -0.000000002299 Rises=F Damp=F
 DIIS: error= 4.85D-07 at cycle  11 NSaved=  11.
 NSaved=11 IEnMin=11 EnMin= -282.940259052037     IErMin=11 ErrMin= 4.85D-07
 ErrMax= 4.85D-07  0.00D+00 EMaxC= 1.00D-01 BMatC= 6.17D-11 BMatP= 9.77D-10
 IDIUse=1 WtCom= 1.00D+00 WtEn= 0.00D+00
 Coeff-Com:  0.315D-06 0.667D-05 0.418D-04-0.126D-03-0.902D-03 0.585D-03
 Coeff-Com:  0.952D-02-0.295D-02-0.659D-01-0.986D-01 0.116D+01
 Coeff:      0.315D-06 0.667D-05 0.418D-04-0.126D-03-0.902D-03 0.585D-03
 Coeff:      0.952D-02-0.295D-02-0.659D-01-0.986D-01 0.116D+01
 Gap=     0.530 Goal=   None    Shift=    0.000
 RMSDP=5.55D-08 MaxDP=2.37D-06 DE=-2.30D-09 OVMax= 4.56D-06

 Cycle  12  Pass 1  IDiag  1:
 E= -282.940259052172     Delta-E=       -0.000000000135 Rises=F Damp=F
 DIIS: error= 1.60D-07 at cycle  12 NSaved=  12.
 NSaved=12 IEnMin=12 EnMin= -282.940259052172     IErMin=12 ErrMin= 1.60D-07
 ErrMax= 1.60D-07  0.00D+00 EMaxC= 1.00D-01 BMatC= 3.93D-12 BMatP= 6.17D-11
 IDIUse=1 WtCom= 1.00D+00 WtEn= 0.00D+00
 Coeff-Com: -0.160D-05 0.126D-04 0.477D-04 0.716D-04-0.154D-03-0.110D-02
 Coeff-Com: -0.141D-02 0.135D-01-0.673D-03-0.914D-01 0.482D-01 0.103D+01
 Coeff:     -0.160D-05 0.126D-04 0.477D-04 0.716D-04-0.154D-03-0.110D-02
 Coeff:     -0.141D-02 0.135D-01-0.673D-03-0.914D-01 0.482D-01 0.103D+01
 Gap=     0.530 Goal=   None    Shift=    0.000
 RMSDP=1.16D-08 MaxDP=4.65D-07 DE=-1.35D-10 OVMax= 1.04D-06

 Cycle  13  Pass 1  IDiag  1:
 E= -282.940259052178     Delta-E=       -0.000000000006 Rises=F Damp=F
 DIIS: error= 5.16D-08 at cycle  13 NSaved=  13.
 NSaved=13 IEnMin=13 EnMin= -282.940259052178     IErMin=13 ErrMin= 5.16D-08
 ErrMax= 5.16D-08  0.00D+00 EMaxC= 1.00D-01 BMatC= 3.54D-13 BMatP= 3.93D-12
 IDIUse=1 WtCom= 1.00D+00 WtEn= 0.00D+00
 Coeff-Com:  0.108D-06-0.158D-05-0.751D-05 0.452D-05 0.105D-03 0.396D-04
 Coeff-Com: -0.968D-03-0.298D-03 0.633D-02 0.125D-01-0.112D+00-0.175D-01
 Coeff-Com:  0.111D+01
 Coeff:      0.108D-06-0.158D-05-0.751D-05 0.452D-05 0.105D-03 0.396D-04
 Coeff:     -0.968D-03-0.298D-03 0.633D-02 0.125D-01-0.112D+00-0.175D-01
 Coeff:      0.111D+01
 Gap=     0.530 Goal=   None    Shift=    0.000
 RMSDP=3.62D-09 MaxDP=1.25D-07 DE=-6.48D-12 OVMax= 3.20D-07

 SCF Done:  E(RHF) =  -282.940259052     A.U. after   13 cycles
            NFock= 13  Conv=0.36D-08     -V/T= 2.0010
 KE= 2.826639670019D+02 PE=-1.025724109958D+03 EE= 2.804572626675D+02
 Leave Link  502 at Fri Oct 14 22:41:25 2016, MaxMem=  5368709120 cpu:       125.5
 (Enter /public/home/users/shu004/g09/l801.exe)
 Windowed orbitals will be sorted by symmetry type.
 ExpMin= 1.03D-01 ExpMax= 1.53D+04 ExpMxC= 5.22D+02 IAcc=3 IRadAn=         5 AccDes= 0.00D+00
 HarFok:  IExCor=  205 AccDes= 0.00D+00 IRadAn=         5 IDoV=-2 UseB2=F ITyADJ=14
 ICtDFT= 12500011 ScaDFX=  1.000000  1.000000  1.000000  1.000000
 DSYEVD-2 returned Info=          87 IAlg= 4 N=    43 NDim=    43 NE2=   124848233 trying  DSYEV.
 DSYEVD-2 returned Info=          87 IAlg= 4 N=    43 NDim=    43 NE2=   124848233 trying  DSYEV.
 Largest valence mixing into a core orbital is  2.10D-04
 Largest core mixing into a valence orbital is  3.00D-05
 Range of M.O.s used for correlation:     6   285
 NBasis=   285 NAE=    20 NBE=    20 NFC=     5 NFV=     0
 NROrb=    280 NOA=    15 NOB=    15 NVA=   265 NVB=   265

 **** Warning!!: The largest alpha MO coefficient is  0.14599999D+02

 Leave Link  801 at Fri Oct 14 22:41:26 2016, MaxMem=  5368709120 cpu:         3.0
 (Enter /public/home/users/shu004/g09/l804.exe)
 Closed-shell transformation, MDV=  5368709120 ITran=4 ISComp=2.
 Semi-Direct transformation.
 ModeAB=           4 MOrb=            15 LenV=    5366659079
 LASXX=     80153831 LTotXX=    80153831 LenRXX=   161235963
 LTotAB=    81082132 MaxLAS=   167781600 LenRXY=           0
 NonZer=   241389794 LenScr=   363504640 LnRSAI=   167781600
 LnScr1=   252659712 LExtra=           0 Total=    945181915
 MaxDsk=          -1 SrtSym=           T ITran=            4
 DoSDTr:  NPSUse= 12
 JobTyp=0 Pass  1:  I=   1 to  15.
 (rs|ai) integrals will be sorted in core.
 Complete sort for first half transformation.
 First half transformation complete.
 Begin second half transformation for I=  10.
 Complete sort for second half transformation.
 Second half transformation complete.
 Spin components of T(2) and E(2):
     alpha-alpha T2 =       0.3546556808D-01 E2=     -0.1282363820D+00
     alpha-beta  T2 =       0.1978087588D+00 E2=     -0.7644031119D+00
     beta-beta   T2 =       0.3546556808D-01 E2=     -0.1282363820D+00
 ANorm=    0.1126383547D+01
 E2 =    -0.1020875876D+01 EUMP2 =    -0.28396113492797D+03
 Leave Link  804 at Fri Oct 14 22:41:49 2016, MaxMem=  5368709120 cpu:       273.9
 (Enter /public/home/users/shu004/g09/l913.exe)
 CIDS:  MDV=  5368709120.
 Frozen-core window:  NFC=   5 NFV=   0.
 IFCWin=0 IBDFC=1 NFBD=     0     0 NFCmp=     0     0 NFFFC=     0     0
 Using DD3R+UMP44R for 1st iteration, S=T.
 Using DD4RQ for 2nd and later iterations.
 Keep R2 and R3 ints in memory in symmetry-blocked form, NReq=1254663470.
 FoFCou: FMM=F IPFlag=           0 FMFlag=           0 FMFlg1=           0
         NFxFlg=           0 DoJE=F BraDBF=F KetDBF=F FulRan=T
         wScrn=  0.000000 ICntrl=     600 IOpCl=  0 I1Cent=           0 NGrid=           0
         NMat0=    1 NMatS0=  40755 NMatT0=    0 NMatD0=    1 NMtDS0=    0 NMtDT0=    0
 Petite list used in FoFCou.
 CCSD(T)
 =======
 Iterations=  50 Convergence= 0.100D-06
 Iteration Nr.   1
 **********************
 DD1Dir will call FoFMem   1 times, MxPair=       240
 NAB=   120 NAA=     0 NBB=     0.
 MP4(R+Q)=  0.22213639D-01
 Maximum subspace dimension=  5
 Norm of the A-vectors is  1.4036334D+00 conv= 1.00D-05.
 RLE energy=       -1.0087784725
 E3=       -0.10530029D-01        EUMP3=      -0.28397166496D+03
 E4(DQ)=    0.16972625D-02        UMP4(DQ)=   -0.28396996769D+03
 E4(SDQ)=  -0.96488845D-02        UMP4(SDQ)=  -0.28398131384D+03
 VARIATIONAL ENERGIES WITH THE FIRST-ORDER WAVEFUNCTION:
 DE(Corr)=  -1.0086337     E(Corr)=     -283.94889275    
 NORM(A)=   0.11264363D+01
 Iteration Nr.   2
 **********************
 DD1Dir will call FoFMem   1 times, MxPair=       240
 NAB=   120 NAA=     0 NBB=     0.
 Norm of the A-vectors is  5.1634685D-01 conv= 1.00D-05.
 RLE energy=       -1.0363135380
 DE(Corr)=  -1.0359251     E(CORR)=     -283.97618411     Delta=-2.73D-02
 NORM(A)=   0.11356683D+01
 Iteration Nr.   3
 **********************
 DD1Dir will call FoFMem   1 times, MxPair=       240
 NAB=   120 NAA=     0 NBB=     0.
 Norm of the A-vectors is  1.4163075D-01 conv= 1.00D-05.
 RLE energy=       -1.0377972506
 DE(Corr)=  -1.0355038     E(CORR)=     -283.97576285     Delta= 4.21D-04
 NORM(A)=   0.11381088D+01
 Iteration Nr.   4
 **********************
 DD1Dir will call FoFMem   1 times, MxPair=       240
 NAB=   120 NAA=     0 NBB=     0.
 Norm of the A-vectors is  5.7908349D-02 conv= 1.00D-05.
 RLE energy=       -1.0379611091
 DE(Corr)=  -1.0377834     E(CORR)=     -283.97804244     Delta=-2.28D-03
 NORM(A)=   0.11388249D+01
 Iteration Nr.   5
 **********************
 DD1Dir will call FoFMem   1 times, MxPair=       240
 NAB=   120 NAA=     0 NBB=     0.
 Norm of the A-vectors is  1.2926111D-02 conv= 1.00D-05.
 RLE energy=       -1.0380720273
 DE(Corr)=  -1.0380293     E(CORR)=     -283.97828833     Delta=-2.46D-04
 NORM(A)=   0.11390520D+01
 Iteration Nr.   6
 **********************
 DD1Dir will call FoFMem   1 times, MxPair=       240
 NAB=   120 NAA=     0 NBB=     0.
 Norm of the A-vectors is  6.6804524D-03 conv= 1.00D-05.
 RLE energy=       -1.0380637020
 DE(Corr)=  -1.0380510     E(CORR)=     -283.97831005     Delta=-2.17D-05
 NORM(A)=   0.11390826D+01
 Iteration Nr.   7
 **********************
 DD1Dir will call FoFMem   1 times, MxPair=       240
 NAB=   120 NAA=     0 NBB=     0.
 Norm of the A-vectors is  2.4321346D-03 conv= 1.00D-05.
 RLE energy=       -1.0380381291
 DE(Corr)=  -1.0380524     E(CORR)=     -283.97831142     Delta=-1.38D-06
 NORM(A)=   0.11390830D+01
 Iteration Nr.   8
 **********************
 DD1Dir will call FoFMem   1 times, MxPair=       240
 NAB=   120 NAA=     0 NBB=     0.
 Norm of the A-vectors is  9.3050736D-04 conv= 1.00D-05.
 RLE energy=       -1.0380508667
 DE(Corr)=  -1.0380518     E(CORR)=     -283.97831087     Delta= 5.52D-07
 NORM(A)=   0.11390878D+01
 Iteration Nr.   9
 **********************
 DD1Dir will call FoFMem   1 times, MxPair=       240
 NAB=   120 NAA=     0 NBB=     0.
 Norm of the A-vectors is  3.3030912D-04 conv= 1.00D-05.
 RLE energy=       -1.0380497322
 DE(Corr)=  -1.0380501     E(CORR)=     -283.97830917     Delta= 1.70D-06
 NORM(A)=   0.11390879D+01
 Iteration Nr.  10
 **********************
 DD1Dir will call FoFMem   1 times, MxPair=       240
 NAB=   120 NAA=     0 NBB=     0.
 Norm of the A-vectors is  1.5163508D-04 conv= 1.00D-05.
 RLE energy=       -1.0380509821
 DE(Corr)=  -1.0380511     E(CORR)=     -283.97831014     Delta=-9.66D-07
 NORM(A)=   0.11390885D+01
 Iteration Nr.  11
 **********************
 DD1Dir will call FoFMem   1 times, MxPair=       240
 NAB=   120 NAA=     0 NBB=     0.
 Norm of the A-vectors is  6.2515529D-05 conv= 1.00D-05.
 RLE energy=       -1.0380513333
 DE(Corr)=  -1.0380512     E(CORR)=     -283.97831020     Delta=-6.89D-08
 NORM(A)=   0.11390888D+01
 Iteration Nr.  12
 **********************
 DD1Dir will call FoFMem   1 times, MxPair=       240
 NAB=   120 NAA=     0 NBB=     0.
 Norm of the A-vectors is  2.8527718D-05 conv= 1.00D-05.
 RLE energy=       -1.0380514643
 DE(Corr)=  -1.0380514     E(CORR)=     -283.97831046     Delta=-2.58D-07
 NORM(A)=   0.11390890D+01
 Iteration Nr.  13
 **********************
 DD1Dir will call FoFMem   1 times, MxPair=       240
 NAB=   120 NAA=     0 NBB=     0.
 Norm of the A-vectors is  1.0037287D-05 conv= 1.00D-05.
 RLE energy=       -1.0380514762
 DE(Corr)=  -1.0380515     E(CORR)=     -283.97831050     Delta=-4.09D-08
 NORM(A)=   0.11390891D+01
 Iteration Nr.  14
 **********************
 DD1Dir will call FoFMem   1 times, MxPair=       240
 NAB=   120 NAA=     0 NBB=     0.
 Norm of the A-vectors is  5.0671763D-06 conv= 1.00D-05.
 RLE energy=       -1.0380514960
 DE(Corr)=  -1.0380515     E(CORR)=     -283.97831055     Delta=-4.35D-08
 NORM(A)=   0.11390891D+01
 CI/CC converged in   14 iterations to DelEn=-4.35D-08 Conv= 1.00D-07 ErrA1= 5.07D-06 Conv= 1.00D-05
 Largest amplitude= 3.43D-02
 IPart=  5 IA=   15   10.31% done.
 IPart=  7 IA=   29   20.05% done.
 IPart=  6 IA=   45   30.50% done.
 IPart=  5 IA=   61   40.22% done.
 IPart=  9 IA=   79   50.28% done.
 IPart=  3 IA=   99   60.37% done.
 IPart=  7 IA=  121   70.15% done.
 IPart=  7 IA=  148   80.27% done.
 IPart=  7 IA=  182   90.03% done.
 Time for triples=    15196.21 seconds.
 T4(CCSD)= -0.45452073D-01
 T5(CCSD)=  0.20392503D-02
 CCSD(T)= -0.28402172337D+03
 Discarding MO integrals.
 Leave Link  913 at Fri Oct 14 23:12:22 2016, MaxMem=  5368709120 cpu:     21941.2
 (Enter /public/home/users/shu004/g09/l601.exe)
 Copying SCF densities to generalized density rwf, IOpCl= 0 IROHF=0.

 **********************************************************************

            Population analysis using the SCF density.

 **********************************************************************

 Orbital symmetries:
       Occupied  (A') (A') (A') (A') (A') (A') (A') (A') (A') (A')
                 (A') (A") (A') (A") (A') (A') (A") (A") (A') (A')
       Virtual   (A') (A') (A") (A") (A') (A") (A') (A') (A') (A')
                 (A") (A') (A") (A') (A') (A") (A') (A") (A') (A')
                 (A') (A') (A') (A") (A") (A') (A') (A') (A") (A')
                 (A") (A') (A') (A') (A") (A") (A") (A') (A') (A')
                 (A") (A') (A") (A') (A") (A') (A") (A') (A") (A')
                 (A') (A') (A") (A') (A') (A") (A') (A') (A') (A")
                 (A') (A') (A") (A') (A') (A") (A") (A') (A') (A")
                 (A') (A") (A') (A') (A") (A') (A") (A') (A') (A')
                 (A") (A') (A') (A') (A") (A') (A") (A') (A') (A")
                 (A') (A") (A') (A") (A") (A') (A') (A") (A') (A')
                 (A") (A') (A') (A") (A") (A') (A") (A") (A") (A')
                 (A") (A') (A') (A") (A') (A") (A') (A") (A') (A")
                 (A') (A') (A') (A') (A") (A') (A") (A") (A') (A")
                 (A') (A') (A') (A") (A') (A") (A") (A') (A') (A")
                 (A') (A") (A') (A") (A') (A') (A') (A') (A") (A')
                 (A') (A") (A') (A') (A") (A') (A') (A") (A") (A')
                 (A') (A") (A') (A') (A') (A") (A') (A') (A') (A")
                 (A") (A') (A") (A') (A') (A') (A') (A") (A") (A")
                 (A') (A") (A") (A') (A") (A') (A") (A') (A") (A")
                 (A') (A') (A") (A') (A') (A') (A') (A') (A') (A')
                 (A") (A') (A') (A') (A") (A') (A') (A') (A') (A")
                 (A') (A') (A") (A") (A') (A') (A') (A') (A') (A')
                 (A') (A") (A') (A') (A") (A") (A") (A') (A") (A')
                 (A') (A') (A') (A') (A") (A") (A") (A') (A") (A')
                 (A") (A') (A') (A') (A') (A") (A') (A') (A') (A")
                 (A') (A') (A') (A') (A") (A') (A') (A") (A") (A')
                 (A') (A') (A') (A') (A')
 The electronic state is 1-A'.
 Alpha  occ. eigenvalues --  -20.61413 -20.54590 -15.55415 -11.38247 -11.28785
 Alpha  occ. eigenvalues --   -1.46527  -1.36985  -1.20402  -0.97379  -0.83207
 Alpha  occ. eigenvalues --   -0.73648  -0.70336  -0.66973  -0.62908  -0.60513
 Alpha  occ. eigenvalues --   -0.58759  -0.54545  -0.48527  -0.46691  -0.41430
 Alpha virt. eigenvalues --    0.11606   0.14657   0.15954   0.19009   0.19542
 Alpha virt. eigenvalues --    0.24355   0.31415   0.33184   0.34881   0.40669
 Alpha virt. eigenvalues --    0.45314   0.45754   0.46411   0.50742   0.53044
 Alpha virt. eigenvalues --    0.54318   0.55945   0.58272   0.58959   0.61489
 Alpha virt. eigenvalues --    0.65082   0.67212   0.68555   0.71303   0.72108
 Alpha virt. eigenvalues --    0.72142   0.77417   0.79261   0.82005   0.83666
 Alpha virt. eigenvalues --    0.86955   0.89567   0.90963   0.95311   0.99268
 Alpha virt. eigenvalues --    0.99822   1.03478   1.08684   1.09094   1.13490
 Alpha virt. eigenvalues --    1.17399   1.19900   1.21493   1.26059   1.30008
 Alpha virt. eigenvalues --    1.31859   1.34999   1.36104   1.39239   1.40559
 Alpha virt. eigenvalues --    1.45906   1.48274   1.49372   1.51277   1.53186
 Alpha virt. eigenvalues --    1.56786   1.56973   1.63224   1.73222   1.78590
 Alpha virt. eigenvalues --    1.79912   1.84400   1.84867   1.88450   1.98816
 Alpha virt. eigenvalues --    1.99978   2.01996   2.06807   2.25199   2.26875
 Alpha virt. eigenvalues --    2.29673   2.30387   2.33241   2.37246   2.39124
 Alpha virt. eigenvalues --    2.55321   2.61975   2.62038   2.70677   2.77671
 Alpha virt. eigenvalues --    2.80165   2.81614   2.90644   2.93862   2.95813
 Alpha virt. eigenvalues --    2.95950   3.05102   3.05533   3.13571   3.17670
 Alpha virt. eigenvalues --    3.17733   3.18888   3.23830   3.28147   3.33689
 Alpha virt. eigenvalues --    3.34092   3.34742   3.37286   3.40656   3.42515
 Alpha virt. eigenvalues --    3.48011   3.50264   3.55492   3.56086   3.56347
 Alpha virt. eigenvalues --    3.58194   3.62723   3.63411   3.71645   3.72581
 Alpha virt. eigenvalues --    3.73673   3.74687   3.77186   3.81602   3.82464
 Alpha virt. eigenvalues --    3.84253   3.90873   3.91159   3.95488   3.96330
 Alpha virt. eigenvalues --    3.97724   4.02264   4.04884   4.08628   4.12221
 Alpha virt. eigenvalues --    4.15666   4.19805   4.22150   4.24746   4.24867
 Alpha virt. eigenvalues --    4.30321   4.35173   4.36032   4.38463   4.42778
 Alpha virt. eigenvalues --    4.44110   4.47601   4.50107   4.57971   4.60660
 Alpha virt. eigenvalues --    4.64682   4.65033   4.69042   4.69273   4.72322
 Alpha virt. eigenvalues --    4.82197   4.89269   5.02450   5.03485   5.12376
 Alpha virt. eigenvalues --    5.13490   5.19276   5.21433   5.25919   5.29861
 Alpha virt. eigenvalues --    5.35849   5.42876   5.49181   5.52100   5.55423
 Alpha virt. eigenvalues --    5.59193   5.63275   5.64165   5.69966   5.73879
 Alpha virt. eigenvalues --    5.77444   5.86863   5.90887   6.01606   6.05698
 Alpha virt. eigenvalues --    6.07731   6.08877   6.13921   6.16906   6.21247
 Alpha virt. eigenvalues --    6.28967   6.32612   6.34359   6.47381   6.51164
 Alpha virt. eigenvalues --    6.73057   6.74901   6.85195   6.88496   6.96547
 Alpha virt. eigenvalues --    7.00005   7.07418   7.22250   7.24352   7.25871
 Alpha virt. eigenvalues --    7.26931   7.34075   7.36131   7.40362   7.50100
 Alpha virt. eigenvalues --    7.58992   7.63043   7.91126   7.96771   8.42628
 Alpha virt. eigenvalues --   15.34528  16.10887  16.20219  16.32486  16.45693
 Alpha virt. eigenvalues --   16.57424  16.82828  17.07813  21.04477  21.69232
 Alpha virt. eigenvalues --   22.01143  22.77119  26.13371  26.25015  26.46945
 Alpha virt. eigenvalues --   26.69235  27.18725  27.31478  29.01453  29.47797
 Alpha virt. eigenvalues --   39.26984  39.27090  39.30089  39.47110  39.59873
 Alpha virt. eigenvalues --   41.37834  41.44189  41.46174  41.52157  41.53204
 Alpha virt. eigenvalues --   41.63596  41.67367  41.70787  41.72417  41.72985
 Alpha virt. eigenvalues --   43.85792  43.87314  43.90010  43.93227  43.95016
 Alpha virt. eigenvalues --   43.98541  44.01319  44.06991  44.16939  44.17974
 Alpha virt. eigenvalues --   80.98244  81.51598  81.70504  81.74382  81.80382
 Alpha virt. eigenvalues --   81.94708  85.62559  86.47321 109.19308 109.62269
 Alpha virt. eigenvalues --  109.90240 116.35100 138.28914 138.39259 138.54610
 Alpha virt. eigenvalues --  138.73335 139.17719 139.27053 149.59346 150.11239
          Condensed to atoms (all electrons):
               1          2          3          4          5          6
     1  C    4.239903   0.392727   0.753756  -0.037162   0.353405  -0.070564
     2  O    0.392727   7.742685  -0.077761   0.331306  -0.092814   0.006361
     3  O    0.753756  -0.077761   7.810149   0.005006  -0.093754   0.001255
     4  H   -0.037162   0.331306   0.005006   0.476066   0.002279   0.000251
     5  C    0.353405  -0.092814  -0.093754   0.002279   4.853126   0.345473
     6  N   -0.070564   0.006361   0.001255   0.000251   0.345473   6.252893
     7  H   -0.039223   0.004801   0.001222  -0.000265   0.405257  -0.021502
     8  H   -0.039223   0.004801   0.001222  -0.000265   0.405257  -0.021502
     9  H   -0.003349   0.000304   0.005619  -0.000042  -0.046569   0.404918
    10  H   -0.003349   0.000304   0.005619  -0.000042  -0.046569   0.404918
               7          8          9         10
     1  C   -0.039223  -0.039223  -0.003349  -0.003349
     2  O    0.004801   0.004801   0.000304   0.000304
     3  O    0.001222   0.001222   0.005619   0.005619
     4  H   -0.000265  -0.000265  -0.000042  -0.000042
     5  C    0.405257   0.405257  -0.046569  -0.046569
     6  N   -0.021502  -0.021502   0.404918   0.404918
     7  H    0.584404  -0.028320  -0.007488   0.008299
     8  H   -0.028320   0.584404   0.008299  -0.007488
     9  H   -0.007488   0.008299   0.547356  -0.034580
    10  H    0.008299  -0.007488  -0.034580   0.547356
 Mulliken charges:
               1
     1  C    0.453078
     2  O   -0.312715
     3  O   -0.412334
     4  H    0.222867
     5  C   -0.085091
     6  N   -0.302501
     7  H    0.092816
     8  H    0.092816
     9  H    0.125532
    10  H    0.125532
 Sum of Mulliken charges =   0.00000
 Mulliken charges with hydrogens summed into heavy atoms:
               1
     1  C    0.453078
     2  O   -0.089848
     3  O   -0.412334
     5  C    0.100541
     6  N   -0.051437
 Electronic spatial extent (au):  <R**2>=            419.4188
 Charge=              0.0000 electrons
 Dipole moment (field-independent basis, Debye):
    X=              3.0031    Y=             -1.5949    Z=              0.0000  Tot=              3.4003
 Quadrupole moment (field-independent basis, Debye-Ang):
   XX=            -26.3712   YY=            -38.5271   ZZ=            -27.0480
   XY=              3.9861   XZ=              0.0000   YZ=              0.0000
 Traceless Quadrupole moment (field-independent basis, Debye-Ang):
   XX=              4.2776   YY=             -7.8783   ZZ=              3.6007
   XY=              3.9861   XZ=              0.0000   YZ=              0.0000
 Octapole moment (field-independent basis, Debye-Ang**2):
  XXX=             12.0702  YYY=             13.7986  ZZZ=              0.0000  XYY=             -2.1421
  XXY=             -1.5313  XXZ=              0.0000  XZZ=             -1.3828  YZZ=             -1.7610
  YYZ=              0.0000  XYZ=              0.0000
 Hexadecapole moment (field-independent basis, Debye-Ang**3):
 XXXX=           -125.4876 YYYY=           -382.9528 ZZZZ=            -33.5471 XXXY=             -1.7662
 XXXZ=              0.0000 YYYX=            -19.4925 YYYZ=              0.0000 ZZZX=              0.0000
 ZZZY=              0.0000 XXYY=            -69.9706 XXZZ=            -27.2134 YYZZ=            -54.1163
 XXYZ=              0.0000 YYXZ=              0.0000 ZZXY=             -4.7870
 N-N= 1.796626212364D+02 E-N=-1.025724107904D+03  KE= 2.826639670019D+02
 Symmetry A'   KE= 2.698582893953D+02
 Symmetry A"   KE= 1.280567760662D+01
 Leave Link  601 at Fri Oct 14 23:12:23 2016, MaxMem=  5368709120 cpu:         3.4
 (Enter /public/home/users/shu004/g09/l9999.exe)
 1\1\GINC-A729\SP\RCCSD(T)-FC\Gen\C2H5N1O2\SHU004\14-Oct-2016\0\\#P CCS
 D(T) gen\\start best geom PCCP paper\\0,1\C\O,1,1.35431\O,1,1.19608,2,
 120.26189\H,2,0.961906,1,110.63119,3,180.,0\C,1,1.52269,3,124.62553,2,
 180.,0\N,5,1.44073,1,115.35662,3,0.,0\H,5,1.09261,1,107.80356,3,-122.6
 2433,0\H,5,1.09261,1,107.80356,3,122.62433,0\H,6,1.01113,5,110.22995,1
 ,-58.35404,0\H,6,1.01113,5,110.22995,1,58.35404,0\\Version=ES64L-G09Re
 vD.01\State=1-A'\HF=-282.9402591\MP2=-283.9611349\MP3=-283.971665\MP4D
 =-283.9921813\MP4DQ=-283.9699677\MP4SDQ=-283.9813138\CCSD=-283.9783105
 \CCSD(T)=-284.0217234\RMSD=3.615e-09\PG=CS [SG(C2H1N1O2),X(H4)]\\@


 ROSE IS A RED
 TY COBB IS BLUE
 'CAUSE PETE JUST HIT
 NO. 4592.
 Job cpu time:       0 days  6 hours 12 minutes 48.6 seconds.
 File lengths (MBytes):  RWF=   7247 Int=      0 D2E=      0 Chk=      5 Scr=      1
 Normal termination of Gaussian 09 at Fri Oct 14 23:12:23 2016.
