 Entering Gaussian System, Link 0=g09
 Input=ttt_Best_geom_CCSDT_CVTZ_Full.gjf
 Output=ttt_Best_geom_CCSDT_CVTZ_Full.log
 AtFile(1): /public/home/users/shu004/Basis_sets/cc-pCVTZ.gbs
            !  cc-pCVTZ  EMSL  Basis Set Exchange Library   10/10/16 1:18 AM
            ! Elements                             References
            ! --------                             ----------
            ! H     : T.H. Dunning, Jr. J. Chem. Phys. 90, 1007 (1989).
            ! He    : D.E. Woon and T.H. Dunning, Jr. J. Chem. Phys. 100, 2975 (1994).
            ! Li - Ne: T.H. Dunning, Jr. J. Chem. Phys. 90, 1007 (1989).
            ! Na - Mg: D.E. Woon and T.H. Dunning, Jr.  (to be published)
            ! Al - Ar: D.E. Woon and T.H. Dunning, Jr.  J. Chem. Phys. 98, 1358 (1993).
            ! Ca     : J. Koput and K.A. Peterson, J. Phys. Chem. A, 106, 9595 (2002).
            ! Sc - Zn: N.B. Balabanov and K.A. Peterson, J. Chem. Phys, 123, 064107 (2005)
            ! Ga - Kr: A.K. Wilson, D.E. Woon, K.A. Peterson, T.H. Dunning, Jr., J. Chem. Phys., 110, 7667 (1999)
            !
            ! Elements                             References
            ! --------                             ----------
            ! Li - Ne: T.H. Dunning, Jr. J. Chem. Phys. 90, 1007 (1989) and D. E. Woon and
            ! T.H. Dunning, Jr. J. Chem. Phys. 103, 4572 (1995).
            ! Al - Ar: K.A. Peterson and T.H. Dunning, Jr. J. Chem. Phys. 117, 10548 (2002)
            ! Ca     : K.A. Peterson (to be published)
            !
            -H  0
            cc-pVTZ
            ****
            C     0
            S   8   1.00
               8236.0000000              0.0005310
               1235.0000000              0.0041080
                280.8000000              0.0210870
                 79.2700000              0.0818530
                 25.5900000              0.2348170
                  8.9970000              0.4344010
                  3.3190000              0.3461290
                  0.3643000             -0.0089830
            S   8   1.00
               8236.0000000             -0.0001130
               1235.0000000             -0.0008780
                280.8000000             -0.0045400
                 79.2700000             -0.0181330
                 25.5900000             -0.0557600
                  8.9970000             -0.1268950
                  3.3190000             -0.1703520
                  0.3643000              0.5986840
            S   1   1.00
                  0.9059000              1.0000000
            S   1   1.00
                  0.1285000              1.0000000
            S   1   1.00
                  4.2920000              1.0000000
            S   1   1.00
                 11.8760000              1.0000000
            P   3   1.00
                 18.7100000              0.0140310
                  4.1330000              0.0868660
                  1.2000000              0.2902160
            P   1   1.00
                  0.3827000              1.0000000
            P   1   1.00
                  0.1209000              1.0000000
            P   1   1.00
                  8.7780000              1.0000000
            P   1   1.00
                 33.1900000              1.0000000
            D   1   1.00
                  1.0970000              1.0000000
            D   1   1.00
                  0.3180000              1.0000000
            D   1   1.00
                 14.8390000              1.0000000
            F   1   1.00
                  0.7610000              1.0000000
            ****
            N     0
            S   8   1.00
              11420.0000000              0.0005230
               1712.0000000              0.0040450
                389.3000000              0.0207750
                110.0000000              0.0807270
                 35.5700000              0.2330740
                 12.5400000              0.4335010
                  4.6440000              0.3474720
                  0.5118000             -0.0085080
            S   8   1.00
              11420.0000000             -0.0001150
               1712.0000000             -0.0008950
                389.3000000             -0.0046240
                110.0000000             -0.0185280
                 35.5700000             -0.0573390
                 12.5400000             -0.1320760
                  4.6440000             -0.1725100
                  0.5118000              0.5999440
            S   1   1.00
                  1.2930000              1.0000000
            S   1   1.00
                  0.1787000              1.0000000
            S   1   1.00
                  5.9520000              1.0000000
            S   1   1.00
                 16.2010000              1.0000000
            P   3   1.00
                 26.6300000              0.0146700
                  5.9480000              0.0917640
                  1.7420000              0.2986830
            P   1   1.00
                  0.5550000              1.0000000
            P   1   1.00
                  0.1725000              1.0000000
            P   1   1.00
                 11.8710000              1.0000000
            P   1   1.00
                 44.8490000              1.0000000
            D   1   1.00
                  1.6540000              1.0000000
            D   1   1.00
                  0.4690000              1.0000000
            D   1   1.00
                 14.2000000              1.0000000
            F   1   1.00
                  1.0930000              1.0000000
            ****
            O     0
            S   8   1.00
              15330.0000000              0.0005080
               2299.0000000              0.0039290
                522.4000000              0.0202430
                147.3000000              0.0791810
                 47.5500000              0.2306870
                 16.7600000              0.4331180
                  6.2070000              0.3502600
                  0.6882000             -0.0081540
            S   8   1.00
              15330.0000000             -0.0001150
               2299.0000000             -0.0008950
                522.4000000             -0.0046360
                147.3000000             -0.0187240
                 47.5500000             -0.0584630
                 16.7600000             -0.1364630
                  6.2070000             -0.1757400
                  0.6882000              0.6034180
            S   1   1.00
                  1.7520000              1.0000000
            S   1   1.00
                  0.2384000              1.0000000
            S   1   1.00
                  7.8450000              1.0000000
            S   1   1.00
                 21.0320000              1.0000000
            P   3   1.00
                 34.4600000              0.0159280
                  7.7490000              0.0997400
                  2.2800000              0.3104920
            P   1   1.00
                  0.7156000              1.0000000
            P   1   1.00
                  0.2140000              1.0000000
            P   1   1.00
                 15.1590000              1.0000000
            P   1   1.00
                 57.4370000              1.0000000
            D   1   1.00
                  2.3140000              1.0000000
            D   1   1.00
                  0.6450000              1.0000000
            D   1   1.00
                 15.8580000              1.0000000
            F   1   1.00
                  1.4280000              1.0000000
            ****
 Initial command:
 /public/home/users/shu004/g09/l1.exe "/public/home/users/shu004/scratch/Gau-19236.inp" -scrdir="/public/home/users/shu004/scratch/"
 Entering Link 1 = /public/home/users/shu004/g09/l1.exe PID=     19237.
  
 Copyright (c) 1988,1990,1992,1993,1995,1998,2003,2009,2013,
            Gaussian, Inc.  All Rights Reserved.
  
 This is part of the Gaussian(R) 09 program.  It is based on
 the Gaussian(R) 03 system (copyright 2003, Gaussian, Inc.),
 the Gaussian(R) 98 system (copyright 1998, Gaussian, Inc.),
 the Gaussian(R) 94 system (copyright 1995, Gaussian, Inc.),
 the Gaussian 92(TM) system (copyright 1992, Gaussian, Inc.),
 the Gaussian 90(TM) system (copyright 1990, Gaussian, Inc.),
 the Gaussian 88(TM) system (copyright 1988, Gaussian, Inc.),
 the Gaussian 86(TM) system (copyright 1986, Carnegie Mellon
 University), and the Gaussian 82(TM) system (copyright 1983,
 Carnegie Mellon University). Gaussian is a federally registered
 trademark of Gaussian, Inc.
  
 This software contains proprietary and confidential information,
 including trade secrets, belonging to Gaussian, Inc.
  
 This software is provided under written license and may be
 used, copied, transmitted, or stored only in accord with that
 written license.
  
 The following legend is applicable only to US Government
 contracts under FAR:
  
                    RESTRICTED RIGHTS LEGEND
  
 Use, reproduction and disclosure by the US Government is
 subject to restrictions as set forth in subparagraphs (a)
 and (c) of the Commercial Computer Software - Restricted
 Rights clause in FAR 52.227-19.
  
 Gaussian, Inc.
 340 Quinnipiac St., Bldg. 40, Wallingford CT 06492
  
  
 ---------------------------------------------------------------
 Warning -- This program may not be used in any manner that
 competes with the business of Gaussian, Inc. or will provide
 assistance to any competitor of Gaussian, Inc.  The licensee
 of this program is prohibited from giving any competitor of
 Gaussian, Inc. access to this program.  By using this program,
 the user acknowledges that Gaussian, Inc. is engaged in the
 business of creating and licensing software in the field of
 computational chemistry and represents and warrants to the
 licensee that it is not a competitor of Gaussian, Inc. and that
 it will not use this program in any manner prohibited above.
 ---------------------------------------------------------------
  

 Cite this work as:
 Gaussian 09, Revision D.01,
 M. J. Frisch, G. W. Trucks, H. B. Schlegel, G. E. Scuseria, 
 M. A. Robb, J. R. Cheeseman, G. Scalmani, V. Barone, B. Mennucci, 
 G. A. Petersson, H. Nakatsuji, M. Caricato, X. Li, H. P. Hratchian, 
 A. F. Izmaylov, J. Bloino, G. Zheng, J. L. Sonnenberg, M. Hada, 
 M. Ehara, K. Toyota, R. Fukuda, J. Hasegawa, M. Ishida, T. Nakajima, 
 Y. Honda, O. Kitao, H. Nakai, T. Vreven, J. A. Montgomery, Jr., 
 J. E. Peralta, F. Ogliaro, M. Bearpark, J. J. Heyd, E. Brothers, 
 K. N. Kudin, V. N. Staroverov, T. Keith, R. Kobayashi, J. Normand, 
 K. Raghavachari, A. Rendell, J. C. Burant, S. S. Iyengar, J. Tomasi, 
 M. Cossi, N. Rega, J. M. Millam, M. Klene, J. E. Knox, J. B. Cross, 
 V. Bakken, C. Adamo, J. Jaramillo, R. Gomperts, R. E. Stratmann, 
 O. Yazyev, A. J. Austin, R. Cammi, C. Pomelli, J. W. Ochterski, 
 R. L. Martin, K. Morokuma, V. G. Zakrzewski, G. A. Voth, 
 P. Salvador, J. J. Dannenberg, S. Dapprich, A. D. Daniels, 
 O. Farkas, J. B. Foresman, J. V. Ortiz, J. Cioslowski, 
 and D. J. Fox, Gaussian, Inc., Wallingford CT, 2013.
 
 ******************************************
 Gaussian 09:  ES64L-G09RevD.01 24-Apr-2013
                15-Oct-2016 
 ******************************************
 %chk=ttt_Best_geom_CCSDT_CVTZ_Full.chk
 %nprocshared=12
 Will use up to   12 processors via shared memory.
 %mem=40GB
 -------------------
 #P CCSD(T)=Full gen
 -------------------
 1/38=1/1;
 2/12=2,17=6,18=5,40=1/2;
 3/5=7,11=9,16=1,25=1,30=1/1,2,3;
 4//1;
 5/5=2,38=5/2;
 8/6=4,9=120000,10=90/1,4;
 9/5=7,14=2/13;
 6/7=2,8=2,9=2,10=2/1;
 99/5=1,9=1/99;
 Leave Link    1 at Sat Oct 15 02:31:14 2016, MaxMem=  5368709120 cpu:         2.4
 (Enter /public/home/users/shu004/g09/l101.exe)
 --------------------------
 start best geom PCCP paper
 --------------------------
 Symbolic Z-matrix:
 Charge =  0 Multiplicity = 1
 C
 O                    1    B1
 O                    1    B2       2    A1
 H                    2    B3       1    A2       3    D1       0
 C                    1    B4       3    A3       2    D2       0
 N                    5    B5       1    A4       3    D3       0
 H                    5    B6       1    A5       3    D4       0
 H                    5    B6       1    A5       3    D4m      0
 H                    6    B8       5    A7       1    D6       0
 H                    6    B8       5    A7       1    D6m      0
       Variables:
  B1                    1.3486                   
  B2                    1.2025                   
  A1                  123.0718                   
  B3                    0.9651                   
  A2                  107.1011                   
  B4                    1.5141                   
  A3                  125.77                     
  B5                    1.442                    
  A4                  115.3802                   
  B6                    1.0905                   
  A5                  107.3709                   
  D4                 -123.1312                   
  D4m                 123.1312                   
  B8                    1.0109                   
  A7                  110.5508                   
  D6                  -58.6741                   
  D6m                  58.6741                   
  D1                    0.                       
  D2                  180.                       
  D3                    0.                       
 
 NAtoms=     10 NQM=       10 NQMF=       0 NMMI=      0 NMMIF=      0
                NMic=       0 NMicF=      0.
                    Isotopes and Nuclear Properties:
 (Nuclear quadrupole moments (NQMom) in fm**2, nuclear magnetic moments (NMagM)
  in nuclear magnetons)

  Atom         1           2           3           4           5           6           7           8           9          10
 IAtWgt=          12          16          16           1          12          14           1           1           1           1
 AtmWgt=  12.0000000  15.9949146  15.9949146   1.0078250  12.0000000  14.0030740   1.0078250   1.0078250   1.0078250   1.0078250
 NucSpn=           0           0           0           1           0           2           1           1           1           1
 AtZEff=   0.0000000   0.0000000   0.0000000   0.0000000   0.0000000   0.0000000   0.0000000   0.0000000   0.0000000   0.0000000
 NQMom=    0.0000000   0.0000000   0.0000000   0.0000000   0.0000000   2.0440000   0.0000000   0.0000000   0.0000000   0.0000000
 NMagM=    0.0000000   0.0000000   0.0000000   2.7928460   0.0000000   0.4037610   2.7928460   2.7928460   2.7928460   2.7928460
 AtZNuc=   6.0000000   8.0000000   8.0000000   1.0000000   6.0000000   7.0000000   1.0000000   1.0000000   1.0000000   1.0000000
 Leave Link  101 at Sat Oct 15 02:31:15 2016, MaxMem=  5368709120 cpu:         1.6
 (Enter /public/home/users/shu004/g09/l202.exe)
                          Input orientation:                          
 ---------------------------------------------------------------------
 Center     Atomic      Atomic             Coordinates (Angstroms)
 Number     Number       Type             X           Y           Z
 ---------------------------------------------------------------------
      1          6           0        0.000000    0.000000    0.000000
      2          8           0        0.000000    0.000000    1.348600
      3          8           0        1.007680    0.000000   -0.656192
      4          1           0        0.922430    0.000000    1.632396
      5          6           0       -1.412031    0.000000   -0.546506
      6          7           0       -1.518192    0.000000   -1.984593
      7          1           0       -1.920977    0.871558   -0.133529
      8          1           0       -1.920977   -0.871558   -0.133529
      9          1           0       -1.053528    0.808581   -2.374724
     10          1           0       -1.053528   -0.808581   -2.374724
 ---------------------------------------------------------------------
                    Distance matrix (angstroms):
                    1          2          3          4          5
     1  C    0.000000
     2  O    1.348600   0.000000
     3  O    1.202500   2.243793   0.000000
     4  H    1.874992   0.965100   2.290175   0.000000
     5  C    1.514100   2.363315   2.422195   3.193324   0.000000
     6  N    2.498703   3.662660   2.853888   4.363398   1.442000
     7  H    2.113669   2.578075   3.099971   3.458767   1.090500
     8  H    2.113669   2.578075   3.099971   3.458767   1.090500
     9  H    2.720853   3.953083   2.802808   4.540399   2.030938
    10  H    2.720853   3.953083   2.802808   4.540399   2.030938
                    6          7          8          9         10
     6  N    0.000000
     7  H    2.085254   0.000000
     8  H    2.085254   1.743117   0.000000
     9  H    1.010900   2.404037   2.932285   0.000000
    10  H    1.010900   2.932285   2.404037   1.617161   0.000000
 Stoichiometry    C2H5NO2
 Framework group  CS[SG(C2HNO2),X(H4)]
 Deg. of freedom    15
 Full point group                 CS      NOp   2
 Largest Abelian subgroup         CS      NOp   2
 Largest concise Abelian subgroup CS      NOp   2
                         Standard orientation:                         
 ---------------------------------------------------------------------
 Center     Atomic      Atomic             Coordinates (Angstroms)
 Number     Number       Type             X           Y           Z
 ---------------------------------------------------------------------
      1          6           0        0.000000    0.549747    0.000000
      2          8           0        0.985218    1.470653    0.000000
      3          8           0       -1.167485    0.837818    0.000000
      4          1           0        0.562653    2.338326    0.000000
      5          6           0        0.564972   -0.854997    0.000000
      6          7           0       -0.413127   -1.914567    0.000000
      7          1           0        1.214211   -0.944801    0.871558
      8          1           0        1.214211   -0.944801   -0.871558
      9          1           0       -1.015438   -1.841513    0.808581
     10          1           0       -1.015438   -1.841513   -0.808581
 ---------------------------------------------------------------------
 Rotational constants (GHZ):     10.3961957      3.9010533      2.9303554
 Leave Link  202 at Sat Oct 15 02:31:15 2016, MaxMem=  5368709120 cpu:         1.4
 (Enter /public/home/users/shu004/g09/l301.exe)
 General basis read from cards:  (5D, 7F)
 Centers:       4      7      8      9     10
 cc-pVTZ
 ****
 Centers:       1      5
 S 8 1.00
     Exponent=  8.2360000000D+03 Coefficients=  5.3100000000D-04
     Exponent=  1.2350000000D+03 Coefficients=  4.1080000000D-03
     Exponent=  2.8080000000D+02 Coefficients=  2.1087000000D-02
     Exponent=  7.9270000000D+01 Coefficients=  8.1853000000D-02
     Exponent=  2.5590000000D+01 Coefficients=  2.3481700000D-01
     Exponent=  8.9970000000D+00 Coefficients=  4.3440100000D-01
     Exponent=  3.3190000000D+00 Coefficients=  3.4612900000D-01
     Exponent=  3.6430000000D-01 Coefficients= -8.9830000000D-03
 S 8 1.00
     Exponent=  8.2360000000D+03 Coefficients= -1.1300000000D-04
     Exponent=  1.2350000000D+03 Coefficients= -8.7800000000D-04
     Exponent=  2.8080000000D+02 Coefficients= -4.5400000000D-03
     Exponent=  7.9270000000D+01 Coefficients= -1.8133000000D-02
     Exponent=  2.5590000000D+01 Coefficients= -5.5760000000D-02
     Exponent=  8.9970000000D+00 Coefficients= -1.2689500000D-01
     Exponent=  3.3190000000D+00 Coefficients= -1.7035200000D-01
     Exponent=  3.6430000000D-01 Coefficients=  5.9868400000D-01
 S 1 1.00
     Exponent=  9.0590000000D-01 Coefficients=  1.0000000000D+00
 S 1 1.00
     Exponent=  1.2850000000D-01 Coefficients=  1.0000000000D+00
 S 1 1.00
     Exponent=  4.2920000000D+00 Coefficients=  1.0000000000D+00
 S 1 1.00
     Exponent=  1.1876000000D+01 Coefficients=  1.0000000000D+00
 P 3 1.00
     Exponent=  1.8710000000D+01 Coefficients=  1.4031000000D-02
     Exponent=  4.1330000000D+00 Coefficients=  8.6866000000D-02
     Exponent=  1.2000000000D+00 Coefficients=  2.9021600000D-01
 P 1 1.00
     Exponent=  3.8270000000D-01 Coefficients=  1.0000000000D+00
 P 1 1.00
     Exponent=  1.2090000000D-01 Coefficients=  1.0000000000D+00
 P 1 1.00
     Exponent=  8.7780000000D+00 Coefficients=  1.0000000000D+00
 P 1 1.00
     Exponent=  3.3190000000D+01 Coefficients=  1.0000000000D+00
 D 1 1.00
     Exponent=  1.0970000000D+00 Coefficients=  1.0000000000D+00
 D 1 1.00
     Exponent=  3.1800000000D-01 Coefficients=  1.0000000000D+00
 D 1 1.00
     Exponent=  1.4839000000D+01 Coefficients=  1.0000000000D+00
 F 1 1.00
     Exponent=  7.6100000000D-01 Coefficients=  1.0000000000D+00
 ****
 Centers:       6
 S 8 1.00
     Exponent=  1.1420000000D+04 Coefficients=  5.2300000000D-04
     Exponent=  1.7120000000D+03 Coefficients=  4.0450000000D-03
     Exponent=  3.8930000000D+02 Coefficients=  2.0775000000D-02
     Exponent=  1.1000000000D+02 Coefficients=  8.0727000000D-02
     Exponent=  3.5570000000D+01 Coefficients=  2.3307400000D-01
     Exponent=  1.2540000000D+01 Coefficients=  4.3350100000D-01
     Exponent=  4.6440000000D+00 Coefficients=  3.4747200000D-01
     Exponent=  5.1180000000D-01 Coefficients= -8.5080000000D-03
 S 8 1.00
     Exponent=  1.1420000000D+04 Coefficients= -1.1500000000D-04
     Exponent=  1.7120000000D+03 Coefficients= -8.9500000000D-04
     Exponent=  3.8930000000D+02 Coefficients= -4.6240000000D-03
     Exponent=  1.1000000000D+02 Coefficients= -1.8528000000D-02
     Exponent=  3.5570000000D+01 Coefficients= -5.7339000000D-02
     Exponent=  1.2540000000D+01 Coefficients= -1.3207600000D-01
     Exponent=  4.6440000000D+00 Coefficients= -1.7251000000D-01
     Exponent=  5.1180000000D-01 Coefficients=  5.9994400000D-01
 S 1 1.00
     Exponent=  1.2930000000D+00 Coefficients=  1.0000000000D+00
 S 1 1.00
     Exponent=  1.7870000000D-01 Coefficients=  1.0000000000D+00
 S 1 1.00
     Exponent=  5.9520000000D+00 Coefficients=  1.0000000000D+00
 S 1 1.00
     Exponent=  1.6201000000D+01 Coefficients=  1.0000000000D+00
 P 3 1.00
     Exponent=  2.6630000000D+01 Coefficients=  1.4670000000D-02
     Exponent=  5.9480000000D+00 Coefficients=  9.1764000000D-02
     Exponent=  1.7420000000D+00 Coefficients=  2.9868300000D-01
 P 1 1.00
     Exponent=  5.5500000000D-01 Coefficients=  1.0000000000D+00
 P 1 1.00
     Exponent=  1.7250000000D-01 Coefficients=  1.0000000000D+00
 P 1 1.00
     Exponent=  1.1871000000D+01 Coefficients=  1.0000000000D+00
 P 1 1.00
     Exponent=  4.4849000000D+01 Coefficients=  1.0000000000D+00
 D 1 1.00
     Exponent=  1.6540000000D+00 Coefficients=  1.0000000000D+00
 D 1 1.00
     Exponent=  4.6900000000D-01 Coefficients=  1.0000000000D+00
 D 1 1.00
     Exponent=  1.4200000000D+01 Coefficients=  1.0000000000D+00
 F 1 1.00
     Exponent=  1.0930000000D+00 Coefficients=  1.0000000000D+00
 ****
 Centers:       2      3
 S 8 1.00
     Exponent=  1.5330000000D+04 Coefficients=  5.0800000000D-04
     Exponent=  2.2990000000D+03 Coefficients=  3.9290000000D-03
     Exponent=  5.2240000000D+02 Coefficients=  2.0243000000D-02
     Exponent=  1.4730000000D+02 Coefficients=  7.9181000000D-02
     Exponent=  4.7550000000D+01 Coefficients=  2.3068700000D-01
     Exponent=  1.6760000000D+01 Coefficients=  4.3311800000D-01
     Exponent=  6.2070000000D+00 Coefficients=  3.5026000000D-01
     Exponent=  6.8820000000D-01 Coefficients= -8.1540000000D-03
 S 8 1.00
     Exponent=  1.5330000000D+04 Coefficients= -1.1500000000D-04
     Exponent=  2.2990000000D+03 Coefficients= -8.9500000000D-04
     Exponent=  5.2240000000D+02 Coefficients= -4.6360000000D-03
     Exponent=  1.4730000000D+02 Coefficients= -1.8724000000D-02
     Exponent=  4.7550000000D+01 Coefficients= -5.8463000000D-02
     Exponent=  1.6760000000D+01 Coefficients= -1.3646300000D-01
     Exponent=  6.2070000000D+00 Coefficients= -1.7574000000D-01
     Exponent=  6.8820000000D-01 Coefficients=  6.0341800000D-01
 S 1 1.00
     Exponent=  1.7520000000D+00 Coefficients=  1.0000000000D+00
 S 1 1.00
     Exponent=  2.3840000000D-01 Coefficients=  1.0000000000D+00
 S 1 1.00
     Exponent=  7.8450000000D+00 Coefficients=  1.0000000000D+00
 S 1 1.00
     Exponent=  2.1032000000D+01 Coefficients=  1.0000000000D+00
 P 3 1.00
     Exponent=  3.4460000000D+01 Coefficients=  1.5928000000D-02
     Exponent=  7.7490000000D+00 Coefficients=  9.9740000000D-02
     Exponent=  2.2800000000D+00 Coefficients=  3.1049200000D-01
 P 1 1.00
     Exponent=  7.1560000000D-01 Coefficients=  1.0000000000D+00
 P 1 1.00
     Exponent=  2.1400000000D-01 Coefficients=  1.0000000000D+00
 P 1 1.00
     Exponent=  1.5159000000D+01 Coefficients=  1.0000000000D+00
 P 1 1.00
     Exponent=  5.7437000000D+01 Coefficients=  1.0000000000D+00
 D 1 1.00
     Exponent=  2.3140000000D+00 Coefficients=  1.0000000000D+00
 D 1 1.00
     Exponent=  6.4500000000D-01 Coefficients=  1.0000000000D+00
 D 1 1.00
     Exponent=  1.5858000000D+01 Coefficients=  1.0000000000D+00
 F 1 1.00
     Exponent=  1.4280000000D+00 Coefficients=  1.0000000000D+00
 ****
 Ernie: Thresh=  0.10000D-02 Tol=  0.10000D-05 Strict=F.
 Ernie:  15 primitive shells out of 195 were deleted.
 There are   211 symmetry adapted cartesian basis functions of A'  symmetry.
 There are   109 symmetry adapted cartesian basis functions of A"  symmetry.
 There are   183 symmetry adapted basis functions of A'  symmetry.
 There are   102 symmetry adapted basis functions of A"  symmetry.
   285 basis functions,   415 primitive gaussians,   320 cartesian basis functions
    20 alpha electrons       20 beta electrons
       nuclear repulsion energy       179.7404034807 Hartrees.
 IExCor=    0 DFT=F Ex=HF Corr=None ExCW=0 ScaHFX=  1.000000
 ScaDFX=  1.000000  1.000000  1.000000  1.000000 ScalE2=  1.000000  1.000000
 IRadAn=      0 IRanWt=     -1 IRanGd=            0 ICorTp=0 IEmpDi=  4
 NAtoms=   10 NActive=   10 NUniq=    8 SFac= 1.56D+00 NAtFMM=   60 NAOKFM=F Big=F
 Integral buffers will be    131072 words long.
 Raffenetti 1 integral format.
 Two-electron integral symmetry is turned on.
 Leave Link  301 at Sat Oct 15 02:31:15 2016, MaxMem=  5368709120 cpu:         1.6
 (Enter /public/home/users/shu004/g09/l302.exe)
 NPDir=0 NMtPBC=     1 NCelOv=     1 NCel=       1 NClECP=     1 NCelD=      1
         NCelK=      1 NCelE2=     1 NClLst=     1 CellRange=     0.0.
 One-electron integrals computed using PRISM.
 One-electron integral symmetry used in STVInt
 NBasis=   285 RedAO= T EigKep=  6.20D-04  NBF=   183   102
 NBsUse=   285 1.00D-06 EigRej= -1.00D+00 NBFU=   183   102
 Leave Link  302 at Sat Oct 15 02:31:16 2016, MaxMem=  5368709120 cpu:         6.0
 (Enter /public/home/users/shu004/g09/l303.exe)
 DipDrv:  MaxL=1.
 Leave Link  303 at Sat Oct 15 02:31:16 2016, MaxMem=  5368709120 cpu:         1.8
 (Enter /public/home/users/shu004/g09/l401.exe)
 ExpMin= 1.03D-01 ExpMax= 1.53D+04 ExpMxC= 5.22D+02 IAcc=1 IRadAn=         1 AccDes= 0.00D+00
 Harris functional with IExCor=  205 and IRadAn=       1 diagonalized for initial guess.
 HarFok:  IExCor=  205 AccDes= 0.00D+00 IRadAn=         1 IDoV= 1 UseB2=F ITyADJ=14
 ICtDFT=  3500011 ScaDFX=  1.000000  1.000000  1.000000  1.000000
 FoFCou: FMM=F IPFlag=           0 FMFlag=      100000 FMFlg1=           0
         NFxFlg=           0 DoJE=T BraDBF=F KetDBF=T FulRan=T
         wScrn=  0.000000 ICntrl=     500 IOpCl=  0 I1Cent=   200000004 NGrid=           0
         NMat0=    1 NMatS0=      1 NMatT0=    0 NMatD0=    1 NMtDS0=    0 NMtDT0=    0
 Petite list used in FoFCou.
 Harris En= -283.232284372249    
 JPrj=0 DoOrth=F DoCkMO=F.
 Initial guess orbital symmetries:
       Occupied  (A') (A') (A') (A') (A') (A') (A') (A') (A') (A')
                 (A") (A') (A') (A') (A") (A') (A") (A") (A') (A')
       Virtual   (A") (A') (A') (A') (A") (A') (A") (A') (A') (A')
                 (A') (A") (A') (A") (A') (A') (A") (A') (A') (A")
                 (A') (A') (A') (A") (A') (A') (A") (A') (A') (A")
                 (A') (A") (A') (A") (A') (A") (A") (A') (A') (A')
                 (A') (A") (A') (A") (A") (A') (A') (A") (A") (A')
                 (A') (A') (A") (A') (A') (A") (A') (A') (A') (A")
                 (A") (A') (A') (A') (A') (A") (A") (A') (A') (A")
                 (A') (A") (A') (A') (A") (A') (A") (A') (A') (A')
                 (A') (A") (A') (A') (A') (A") (A') (A") (A') (A")
                 (A') (A') (A") (A') (A") (A") (A') (A") (A') (A")
                 (A') (A') (A") (A') (A') (A") (A") (A") (A') (A")
                 (A') (A") (A') (A") (A') (A") (A') (A') (A") (A")
                 (A') (A') (A') (A') (A") (A') (A") (A") (A') (A")
                 (A") (A') (A') (A') (A") (A') (A') (A') (A") (A')
                 (A") (A') (A") (A") (A') (A') (A') (A') (A") (A')
                 (A') (A') (A") (A") (A') (A') (A') (A') (A") (A")
                 (A') (A") (A') (A') (A') (A') (A") (A") (A') (A')
                 (A') (A") (A') (A") (A') (A') (A') (A") (A") (A")
                 (A") (A') (A") (A') (A') (A") (A") (A') (A') (A")
                 (A') (A") (A") (A') (A') (A') (A') (A') (A') (A')
                 (A") (A') (A') (A') (A") (A') (A') (A') (A') (A")
                 (A') (A') (A") (A") (A') (A') (A') (A') (A') (A')
                 (A') (A') (A") (A') (A") (A') (A') (A') (A') (A")
                 (A") (A") (A') (A") (A') (A') (A") (A') (A") (A")
                 (A") (A') (A') (A') (A') (A") (A') (A') (A') (A")
                 (A') (A') (A') (A') (A") (A') (A') (A") (A") (A')
                 (A') (A') (A') (A') (A')
 The electronic state of the initial guess is 1-A'.
 Leave Link  401 at Sat Oct 15 02:31:17 2016, MaxMem=  5368709120 cpu:         5.0
 (Enter /public/home/users/shu004/g09/l502.exe)
 Closed shell SCF:
 Using DIIS extrapolation, IDIIS=  1040.
 Integral symmetry usage will be decided dynamically.
 Keep R1 ints in memory in symmetry-blocked form, NReq=1249114984.
 IVT=      332314 IEndB=      332314 NGot=  5368709120 MDV=  4950099812
 LenX=  4950099812 LenY=  4949996971
 Requested convergence on RMS density matrix=1.00D-08 within 128 cycles.
 Requested convergence on MAX density matrix=1.00D-06.
 Requested convergence on             energy=1.00D-06.
 No special actions if energy rises.
 FoFCou: FMM=F IPFlag=           0 FMFlag=           0 FMFlg1=           0
         NFxFlg=           0 DoJE=F BraDBF=F KetDBF=F FulRan=T
         wScrn=  0.000000 ICntrl=     600 IOpCl=  0 I1Cent=           0 NGrid=           0
         NMat0=    1 NMatS0=  40755 NMatT0=    0 NMatD0=    1 NMtDS0=    0 NMtDT0=    0
 Petite list used in FoFCou.

 Cycle   1  Pass 1  IDiag  1:
 E= -282.706505488076    
 DIIS: error= 4.96D-02 at cycle   1 NSaved=   1.
 NSaved= 1 IEnMin= 1 EnMin= -282.706505488076     IErMin= 1 ErrMin= 4.96D-02
 ErrMax= 4.96D-02  0.00D+00 EMaxC= 1.00D-01 BMatC= 6.82D-01 BMatP= 6.82D-01
 IDIUse=3 WtCom= 5.04D-01 WtEn= 4.96D-01
 Coeff-Com:  0.100D+01
 Coeff-En:   0.100D+01
 Coeff:      0.100D+01
 Gap=     0.485 Goal=   None    Shift=    0.000
 GapD=    0.485 DampG=2.000 DampE=0.500 DampFc=1.0000 IDamp=-1.
 RMSDP=1.46D-03 MaxDP=8.17D-02              OVMax= 1.17D-01

 Cycle   2  Pass 1  IDiag  1:
 E= -282.896802144159     Delta-E=       -0.190296656083 Rises=F Damp=F
 DIIS: error= 1.59D-02 at cycle   2 NSaved=   2.
 NSaved= 2 IEnMin= 2 EnMin= -282.896802144159     IErMin= 2 ErrMin= 1.59D-02
 ErrMax= 1.59D-02  0.00D+00 EMaxC= 1.00D-01 BMatC= 7.95D-02 BMatP= 6.82D-01
 IDIUse=3 WtCom= 8.41D-01 WtEn= 1.59D-01
 Coeff-Com:  0.176D+00 0.824D+00
 Coeff-En:   0.000D+00 0.100D+01
 Coeff:      0.148D+00 0.852D+00
 Gap=     0.584 Goal=   None    Shift=    0.000
 RMSDP=8.03D-04 MaxDP=4.68D-02 DE=-1.90D-01 OVMax= 5.41D-02

 Cycle   3  Pass 1  IDiag  1:
 E= -282.941261606627     Delta-E=       -0.044459462468 Rises=F Damp=F
 DIIS: error= 1.09D-02 at cycle   3 NSaved=   3.
 NSaved= 3 IEnMin= 3 EnMin= -282.941261606627     IErMin= 3 ErrMin= 1.09D-02
 ErrMax= 1.09D-02  0.00D+00 EMaxC= 1.00D-01 BMatC= 1.26D-02 BMatP= 7.95D-02
 IDIUse=3 WtCom= 8.91D-01 WtEn= 1.09D-01
 Coeff-Com: -0.247D-01 0.257D+00 0.768D+00
 Coeff-En:   0.000D+00 0.000D+00 0.100D+01
 Coeff:     -0.220D-01 0.229D+00 0.793D+00
 Gap=     0.550 Goal=   None    Shift=    0.000
 RMSDP=1.81D-04 MaxDP=8.98D-03 DE=-4.45D-02 OVMax= 2.78D-02

 Cycle   4  Pass 1  IDiag  1:
 E= -282.949033956885     Delta-E=       -0.007772350258 Rises=F Damp=F
 DIIS: error= 1.85D-03 at cycle   4 NSaved=   4.
 NSaved= 4 IEnMin= 4 EnMin= -282.949033956885     IErMin= 4 ErrMin= 1.85D-03
 ErrMax= 1.85D-03  0.00D+00 EMaxC= 1.00D-01 BMatC= 5.25D-04 BMatP= 1.26D-02
 IDIUse=3 WtCom= 9.81D-01 WtEn= 1.85D-02
 Coeff-Com: -0.108D-01 0.560D-01 0.264D+00 0.691D+00
 Coeff-En:   0.000D+00 0.000D+00 0.000D+00 0.100D+01
 Coeff:     -0.106D-01 0.549D-01 0.259D+00 0.696D+00
 Gap=     0.546 Goal=   None    Shift=    0.000
 RMSDP=5.67D-05 MaxDP=2.81D-03 DE=-7.77D-03 OVMax= 5.34D-03

 Cycle   5  Pass 1  IDiag  1:
 E= -282.949444572907     Delta-E=       -0.000410616021 Rises=F Damp=F
 DIIS: error= 1.01D-03 at cycle   5 NSaved=   5.
 NSaved= 5 IEnMin= 5 EnMin= -282.949444572907     IErMin= 5 ErrMin= 1.01D-03
 ErrMax= 1.01D-03  0.00D+00 EMaxC= 1.00D-01 BMatC= 2.86D-05 BMatP= 5.25D-04
 IDIUse=3 WtCom= 9.90D-01 WtEn= 1.01D-02
 Coeff-Com:  0.213D-02-0.245D-01-0.753D-01 0.407D-01 0.106D+01
 Coeff-En:   0.000D+00 0.000D+00 0.000D+00 0.000D+00 0.100D+01
 Coeff:      0.211D-02-0.243D-01-0.745D-01 0.403D-01 0.106D+01
 Gap=     0.548 Goal=   None    Shift=    0.000
 RMSDP=2.88D-05 MaxDP=1.15D-03 DE=-4.11D-04 OVMax= 3.74D-03

 Cycle   6  Pass 1  IDiag  1:
 E= -282.949495383445     Delta-E=       -0.000050810538 Rises=F Damp=F
 DIIS: error= 1.91D-04 at cycle   6 NSaved=   6.
 NSaved= 6 IEnMin= 6 EnMin= -282.949495383445     IErMin= 6 ErrMin= 1.91D-04
 ErrMax= 1.91D-04  0.00D+00 EMaxC= 1.00D-01 BMatC= 4.16D-06 BMatP= 2.86D-05
 IDIUse=3 WtCom= 9.98D-01 WtEn= 1.91D-03
 Coeff-Com:  0.148D-02-0.111D-01-0.419D-01-0.708D-01 0.206D+00 0.917D+00
 Coeff-En:   0.000D+00 0.000D+00 0.000D+00 0.000D+00 0.000D+00 0.100D+01
 Coeff:      0.148D-02-0.111D-01-0.418D-01-0.707D-01 0.205D+00 0.917D+00
 Gap=     0.548 Goal=   None    Shift=    0.000
 RMSDP=1.20D-05 MaxDP=6.14D-04 DE=-5.08D-05 OVMax= 1.05D-03

 Cycle   7  Pass 1  IDiag  1:
 E= -282.949502721187     Delta-E=       -0.000007337742 Rises=F Damp=F
 DIIS: error= 9.44D-05 at cycle   7 NSaved=   7.
 NSaved= 7 IEnMin= 7 EnMin= -282.949502721187     IErMin= 7 ErrMin= 9.44D-05
 ErrMax= 9.44D-05  0.00D+00 EMaxC= 1.00D-01 BMatC= 5.09D-07 BMatP= 4.16D-06
 IDIUse=1 WtCom= 1.00D+00 WtEn= 0.00D+00
 Coeff-Com: -0.194D-03 0.260D-02 0.935D-02-0.148D-01-0.120D+00 0.130D-01
 Coeff-Com:  0.111D+01
 Coeff:     -0.194D-03 0.260D-02 0.935D-02-0.148D-01-0.120D+00 0.130D-01
 Coeff:      0.111D+01
 Gap=     0.548 Goal=   None    Shift=    0.000
 RMSDP=4.73D-06 MaxDP=2.20D-04 DE=-7.34D-06 OVMax= 7.27D-04

 Cycle   8  Pass 1  IDiag  1:
 E= -282.949504063160     Delta-E=       -0.000001341973 Rises=F Damp=F
 DIIS: error= 2.67D-05 at cycle   8 NSaved=   8.
 NSaved= 8 IEnMin= 8 EnMin= -282.949504063160     IErMin= 8 ErrMin= 2.67D-05
 ErrMax= 2.67D-05  0.00D+00 EMaxC= 1.00D-01 BMatC= 7.28D-08 BMatP= 5.09D-07
 IDIUse=1 WtCom= 1.00D+00 WtEn= 0.00D+00
 Coeff-Com: -0.170D-03 0.122D-02 0.467D-02 0.607D-02-0.642D-02-0.114D+00
 Coeff-Com: -0.145D+00 0.125D+01
 Coeff:     -0.170D-03 0.122D-02 0.467D-02 0.607D-02-0.642D-02-0.114D+00
 Coeff:     -0.145D+00 0.125D+01
 Gap=     0.548 Goal=   None    Shift=    0.000
 RMSDP=1.89D-06 MaxDP=8.74D-05 DE=-1.34D-06 OVMax= 3.06D-04

 Cycle   9  Pass 1  IDiag  1:
 E= -282.949504269266     Delta-E=       -0.000000206107 Rises=F Damp=F
 DIIS: error= 1.02D-05 at cycle   9 NSaved=   9.
 NSaved= 9 IEnMin= 9 EnMin= -282.949504269266     IErMin= 9 ErrMin= 1.02D-05
 ErrMax= 1.02D-05  0.00D+00 EMaxC= 1.00D-01 BMatC= 9.15D-09 BMatP= 7.28D-08
 IDIUse=1 WtCom= 1.00D+00 WtEn= 0.00D+00
 Coeff-Com: -0.653D-05-0.106D-03-0.340D-03 0.215D-02 0.161D-01-0.210D-01
 Coeff-Com: -0.168D+00 0.207D+00 0.963D+00
 Coeff:     -0.653D-05-0.106D-03-0.340D-03 0.215D-02 0.161D-01-0.210D-01
 Coeff:     -0.168D+00 0.207D+00 0.963D+00
 Gap=     0.548 Goal=   None    Shift=    0.000
 RMSDP=5.80D-07 MaxDP=2.59D-05 DE=-2.06D-07 OVMax= 8.63D-05

 Cycle  10  Pass 1  IDiag  1:
 E= -282.949504288660     Delta-E=       -0.000000019393 Rises=F Damp=F
 DIIS: error= 2.88D-06 at cycle  10 NSaved=  10.
 NSaved=10 IEnMin=10 EnMin= -282.949504288660     IErMin=10 ErrMin= 2.88D-06
 ErrMax= 2.88D-06  0.00D+00 EMaxC= 1.00D-01 BMatC= 8.70D-10 BMatP= 9.15D-09
 IDIUse=1 WtCom= 1.00D+00 WtEn= 0.00D+00
 Coeff-Com:  0.220D-04-0.172D-03-0.632D-03-0.108D-02 0.198D-02 0.140D-01
 Coeff-Com:  0.164D-01-0.162D+00 0.218D-01 0.111D+01
 Coeff:      0.220D-04-0.172D-03-0.632D-03-0.108D-02 0.198D-02 0.140D-01
 Coeff:      0.164D-01-0.162D+00 0.218D-01 0.111D+01
 Gap=     0.548 Goal=   None    Shift=    0.000
 RMSDP=1.91D-07 MaxDP=7.27D-06 DE=-1.94D-08 OVMax= 2.46D-05

 Cycle  11  Pass 1  IDiag  1:
 E= -282.949504290640     Delta-E=       -0.000000001981 Rises=F Damp=F
 DIIS: error= 4.67D-07 at cycle  11 NSaved=  11.
 NSaved=11 IEnMin=11 EnMin= -282.949504290640     IErMin=11 ErrMin= 4.67D-07
 ErrMax= 4.67D-07  0.00D+00 EMaxC= 1.00D-01 BMatC= 5.96D-11 BMatP= 8.70D-10
 IDIUse=1 WtCom= 1.00D+00 WtEn= 0.00D+00
 Coeff-Com:  0.500D-06 0.496D-05 0.372D-04-0.167D-03-0.885D-03 0.602D-03
 Coeff-Com:  0.105D-01-0.535D-02-0.765D-01-0.625D-01 0.113D+01
 Coeff:      0.500D-06 0.496D-05 0.372D-04-0.167D-03-0.885D-03 0.602D-03
 Coeff:      0.105D-01-0.535D-02-0.765D-01-0.625D-01 0.113D+01
 Gap=     0.548 Goal=   None    Shift=    0.000
 RMSDP=5.18D-08 MaxDP=2.36D-06 DE=-1.98D-09 OVMax= 4.47D-06

 Cycle  12  Pass 1  IDiag  1:
 E= -282.949504290762     Delta-E=       -0.000000000122 Rises=F Damp=F
 DIIS: error= 1.79D-07 at cycle  12 NSaved=  12.
 NSaved=12 IEnMin=12 EnMin= -282.949504290762     IErMin=12 ErrMin= 1.79D-07
 ErrMax= 1.79D-07  0.00D+00 EMaxC= 1.00D-01 BMatC= 3.68D-12 BMatP= 5.96D-11
 IDIUse=1 WtCom= 1.00D+00 WtEn= 0.00D+00
 Coeff-Com: -0.151D-05 0.122D-04 0.476D-04 0.623D-04-0.144D-03-0.101D-02
 Coeff-Com: -0.135D-02 0.133D-01-0.464D-02-0.851D-01 0.432D-01 0.104D+01
 Coeff:     -0.151D-05 0.122D-04 0.476D-04 0.623D-04-0.144D-03-0.101D-02
 Coeff:     -0.135D-02 0.133D-01-0.464D-02-0.851D-01 0.432D-01 0.104D+01
 Gap=     0.548 Goal=   None    Shift=    0.000
 RMSDP=1.15D-08 MaxDP=5.44D-07 DE=-1.22D-10 OVMax= 9.83D-07

 Cycle  13  Pass 1  IDiag  1:
 E= -282.949504290768     Delta-E=       -0.000000000006 Rises=F Damp=F
 DIIS: error= 4.52D-08 at cycle  13 NSaved=  13.
 NSaved=13 IEnMin=13 EnMin= -282.949504290768     IErMin=13 ErrMin= 4.52D-08
 ErrMax= 4.52D-08  0.00D+00 EMaxC= 1.00D-01 BMatC= 3.27D-13 BMatP= 3.68D-12
 IDIUse=1 WtCom= 1.00D+00 WtEn= 0.00D+00
 Coeff-Com:  0.856D-07-0.140D-05-0.688D-05 0.830D-05 0.102D-03 0.337D-04
 Coeff-Com: -0.106D-02 0.698D-04 0.705D-02 0.860D-02-0.105D+00-0.228D-01
 Coeff-Com:  0.111D+01
 Coeff:      0.856D-07-0.140D-05-0.688D-05 0.830D-05 0.102D-03 0.337D-04
 Coeff:     -0.106D-02 0.698D-04 0.705D-02 0.860D-02-0.105D+00-0.228D-01
 Coeff:      0.111D+01
 Gap=     0.548 Goal=   None    Shift=    0.000
 RMSDP=3.50D-09 MaxDP=1.07D-07 DE=-6.08D-12 OVMax= 3.07D-07

 SCF Done:  E(RHF) =  -282.949504291     A.U. after   13 cycles
            NFock= 13  Conv=0.35D-08     -V/T= 2.0010
 KE= 2.826752803986D+02 PE=-1.026010915443D+03 EE= 2.806457272733D+02
 Leave Link  502 at Sat Oct 15 02:31:33 2016, MaxMem=  5368709120 cpu:       130.8
 (Enter /public/home/users/shu004/g09/l801.exe)
 Windowed orbitals will be sorted by symmetry type.
 Range of M.O.s used for correlation:     1   285
 NBasis=   285 NAE=    20 NBE=    20 NFC=     0 NFV=     0
 NROrb=    285 NOA=    20 NOB=    20 NVA=   265 NVB=   265

 **** Warning!!: The largest alpha MO coefficient is  0.13511788D+02

 Leave Link  801 at Sat Oct 15 02:31:33 2016, MaxMem=  5368709120 cpu:         0.3
 (Enter /public/home/users/shu004/g09/l804.exe)
 Closed-shell transformation, MDV=  5368709120 ITran=4 ISComp=2.
 Semi-Direct transformation.
 ModeAB=           4 MOrb=            20 LenV=    5366619252
 LASXX=    111947501 LTotXX=   111947501 LenRXX=   225194543
 LTotAB=   113247042 MaxLAS=   226660500 LenRXY=           0
 NonZer=   337142044 LenScr=   507697152 LnRSAI=   226660500
 LnScr1=   341324800 LExtra=           0 Total=   1300876995
 MaxDsk=          -1 SrtSym=           T ITran=            4
 DoSDTr:  NPSUse= 12
 JobTyp=0 Pass  1:  I=   1 to  20.
 (rs|ai) integrals will be sorted in core.
 Complete sort for first half transformation.
 First half transformation complete.
 Begin second half transformation for I=  10.
 Begin second half transformation for I=  20.
 Complete sort for second half transformation.
 Second half transformation complete.
 Spin components of T(2) and E(2):
     alpha-alpha T2 =       0.3578399698D-01 E2=     -0.1417341755D+00
     alpha-beta  T2 =       0.2003696208D+00 E2=     -0.9862196361D+00
     beta-beta   T2 =       0.3578399698D-01 E2=     -0.1417341755D+00
 ANorm=    0.1127802117D+01
 E2 =    -0.1269687987D+01 EUMP2 =    -0.28421919227788D+03
 Leave Link  804 at Sat Oct 15 02:32:06 2016, MaxMem=  5368709120 cpu:       387.4
 (Enter /public/home/users/shu004/g09/l913.exe)
 CIDS:  MDV=  5368709120.
 IFCWin=0 IBDFC=1 NFBD=     0     0 NFCmp=     0     0 NFFFC=     0     0
 Using DD3R+UMP44R for 1st iteration, S=T.
 Using DD4RQ for 2nd and later iterations.
 Keep R2 and R3 ints in memory in symmetry-blocked form, NReq=1254663470.
 FoFCou: FMM=F IPFlag=           0 FMFlag=           0 FMFlg1=           0
         NFxFlg=           0 DoJE=F BraDBF=F KetDBF=F FulRan=T
         wScrn=  0.000000 ICntrl=     600 IOpCl=  0 I1Cent=           0 NGrid=           0
         NMat0=    1 NMatS0=  40755 NMatT0=    0 NMatD0=    1 NMtDS0=    0 NMtDT0=    0
 Petite list used in FoFCou.
 CCSD(T)
 =======
 Iterations=  50 Convergence= 0.100D-06
 Iteration Nr.   1
 **********************
 DD1Dir will call FoFMem   1 times, MxPair=       420
 NAB=   210 NAA=     0 NBB=     0.
 MP4(R+Q)=  0.23854017D-01
 Maximum subspace dimension=  5
 Norm of the A-vectors is  1.4611076D+00 conv= 1.00D-05.
 RLE energy=       -1.2637324408
 E3=       -0.18447938D-01        EUMP3=      -0.28423764022D+03
 E4(DQ)=    0.27968367D-02        UMP4(DQ)=   -0.28423484338D+03
 E4(SDQ)=  -0.94382458D-02        UMP4(SDQ)=  -0.28424707846D+03
 VARIATIONAL ENERGIES WITH THE FIRST-ORDER WAVEFUNCTION:
 DE(Corr)=  -1.2637046     E(Corr)=     -284.21320893    
 NORM(A)=   0.11272903D+01
 Iteration Nr.   2
 **********************
 DD1Dir will call FoFMem   1 times, MxPair=       420
 NAB=   210 NAA=     0 NBB=     0.
 Norm of the A-vectors is  5.3644960D-01 conv= 1.00D-05.
 RLE energy=       -1.2927089763
 DE(Corr)=  -1.2928284     E(CORR)=     -284.24233269     Delta=-2.91D-02
 NORM(A)=   0.11362937D+01
 Iteration Nr.   3
 **********************
 DD1Dir will call FoFMem   1 times, MxPair=       420
 NAB=   210 NAA=     0 NBB=     0.
 Norm of the A-vectors is  1.4455892D-01 conv= 1.00D-05.
 RLE energy=       -1.2942382306
 DE(Corr)=  -1.2918391     E(CORR)=     -284.24134339     Delta= 9.89D-04
 NORM(A)=   0.11387982D+01
 Iteration Nr.   4
 **********************
 DD1Dir will call FoFMem   1 times, MxPair=       420
 NAB=   210 NAA=     0 NBB=     0.
 Norm of the A-vectors is  5.9343241D-02 conv= 1.00D-05.
 RLE energy=       -1.2944148259
 DE(Corr)=  -1.2942277     E(CORR)=     -284.24373199     Delta=-2.39D-03
 NORM(A)=   0.11395640D+01
 Iteration Nr.   5
 **********************
 DD1Dir will call FoFMem   1 times, MxPair=       420
 NAB=   210 NAA=     0 NBB=     0.
 Norm of the A-vectors is  1.2701411D-02 conv= 1.00D-05.
 RLE energy=       -1.2945347724
 DE(Corr)=  -1.2944869     E(CORR)=     -284.24399122     Delta=-2.59D-04
 NORM(A)=   0.11398077D+01
 Iteration Nr.   6
 **********************
 DD1Dir will call FoFMem   1 times, MxPair=       420
 NAB=   210 NAA=     0 NBB=     0.
 Norm of the A-vectors is  5.8159128D-03 conv= 1.00D-05.
 RLE energy=       -1.2945140749
 DE(Corr)=  -1.2945090     E(CORR)=     -284.24401326     Delta=-2.20D-05
 NORM(A)=   0.11398338D+01
 Iteration Nr.   7
 **********************
 DD1Dir will call FoFMem   1 times, MxPair=       420
 NAB=   210 NAA=     0 NBB=     0.
 Norm of the A-vectors is  2.2723510D-03 conv= 1.00D-05.
 RLE energy=       -1.2944980021
 DE(Corr)=  -1.2945105     E(CORR)=     -284.24401483     Delta=-1.58D-06
 NORM(A)=   0.11398362D+01
 Iteration Nr.   8
 **********************
 DD1Dir will call FoFMem   1 times, MxPair=       420
 NAB=   210 NAA=     0 NBB=     0.
 Norm of the A-vectors is  8.3133206D-04 conv= 1.00D-05.
 RLE energy=       -1.2945084943
 DE(Corr)=  -1.2945093     E(CORR)=     -284.24401359     Delta= 1.24D-06
 NORM(A)=   0.11398401D+01
 Iteration Nr.   9
 **********************
 DD1Dir will call FoFMem   1 times, MxPair=       420
 NAB=   210 NAA=     0 NBB=     0.
 Norm of the A-vectors is  3.1388516D-04 conv= 1.00D-05.
 RLE energy=       -1.2945079437
 DE(Corr)=  -1.2945083     E(CORR)=     -284.24401258     Delta= 1.01D-06
 NORM(A)=   0.11398404D+01
 Iteration Nr.  10
 **********************
 DD1Dir will call FoFMem   1 times, MxPair=       420
 NAB=   210 NAA=     0 NBB=     0.
 Norm of the A-vectors is  1.1689716D-04 conv= 1.00D-05.
 RLE energy=       -1.2945090482
 DE(Corr)=  -1.2945091     E(CORR)=     -284.24401334     Delta=-7.62D-07
 NORM(A)=   0.11398411D+01
 Iteration Nr.  11
 **********************
 DD1Dir will call FoFMem   1 times, MxPair=       420
 NAB=   210 NAA=     0 NBB=     0.
 Norm of the A-vectors is  6.1886297D-05 conv= 1.00D-05.
 RLE energy=       -1.2945094378
 DE(Corr)=  -1.2945093     E(CORR)=     -284.24401356     Delta=-2.12D-07
 NORM(A)=   0.11398414D+01
 Iteration Nr.  12
 **********************
 DD1Dir will call FoFMem   1 times, MxPair=       420
 NAB=   210 NAA=     0 NBB=     0.
 Norm of the A-vectors is  2.6921915D-05 conv= 1.00D-05.
 RLE energy=       -1.2945094794
 DE(Corr)=  -1.2945094     E(CORR)=     -284.24401372     Delta=-1.67D-07
 NORM(A)=   0.11398415D+01
 Iteration Nr.  13
 **********************
 DD1Dir will call FoFMem   1 times, MxPair=       420
 NAB=   210 NAA=     0 NBB=     0.
 Norm of the A-vectors is  1.0543835D-05 conv= 1.00D-05.
 RLE energy=       -1.2945095179
 DE(Corr)=  -1.2945095     E(CORR)=     -284.24401380     Delta=-7.12D-08
 NORM(A)=   0.11398416D+01
 Iteration Nr.  14
 **********************
 DD1Dir will call FoFMem   1 times, MxPair=       420
 NAB=   210 NAA=     0 NBB=     0.
 Norm of the A-vectors is  4.9621271D-06 conv= 1.00D-05.
 RLE energy=       -1.2945096864
 DE(Corr)=  -1.2945095     E(CORR)=     -284.24401382     Delta=-2.26D-08
 NORM(A)=   0.11398419D+01
 CI/CC converged in   14 iterations to DelEn=-2.26D-08 Conv= 1.00D-07 ErrA1= 4.96D-06 Conv= 1.00D-05
 Largest amplitude= 4.26D-02
 IPart=  6 IA=   15   10.31% done.
 IPart=  7 IA=   29   20.05% done.
 IPart=  3 IA=   45   30.50% done.
 IPart= 11 IA=   61   40.22% done.
 IPart=  9 IA=   79   50.28% done.
 IPart=  9 IA=   99   60.37% done.
 IPart=  5 IA=  121   70.15% done.
 IPart=  6 IA=  148   80.27% done.
 IPart=  2 IA=  182   90.03% done.
 Time for triples=    33472.95 seconds.
 T4(CCSD)= -0.47159036D-01
 T5(CCSD)=  0.20865463D-02
 CCSD(T)= -0.28428908631D+03
 Discarding MO integrals.
 Leave Link  913 at Sat Oct 15 03:38:44 2016, MaxMem=  5368709120 cpu:     46599.2
 (Enter /public/home/users/shu004/g09/l601.exe)
 Copying SCF densities to generalized density rwf, IOpCl= 0 IROHF=0.

 **********************************************************************

            Population analysis using the SCF density.

 **********************************************************************

 Orbital symmetries:
       Occupied  (A') (A') (A') (A') (A') (A') (A') (A') (A') (A')
                 (A') (A') (A") (A") (A') (A') (A") (A") (A') (A')
       Virtual   (A') (A') (A") (A') (A") (A") (A') (A') (A') (A')
                 (A") (A') (A") (A') (A") (A') (A') (A') (A") (A')
                 (A') (A') (A') (A') (A") (A') (A") (A') (A') (A")
                 (A') (A") (A') (A") (A') (A") (A") (A') (A') (A')
                 (A") (A') (A") (A') (A') (A") (A") (A') (A") (A')
                 (A') (A') (A") (A') (A') (A') (A") (A') (A') (A")
                 (A') (A") (A') (A') (A') (A") (A") (A') (A') (A")
                 (A') (A") (A') (A') (A") (A') (A') (A") (A') (A')
                 (A') (A") (A') (A') (A") (A') (A') (A") (A') (A")
                 (A") (A') (A") (A') (A') (A") (A') (A") (A') (A")
                 (A') (A') (A") (A') (A") (A") (A') (A") (A') (A")
                 (A') (A") (A') (A') (A") (A") (A') (A") (A") (A')
                 (A') (A') (A') (A') (A") (A') (A") (A") (A') (A")
                 (A') (A') (A") (A') (A") (A') (A') (A") (A') (A")
                 (A') (A") (A') (A") (A') (A') (A') (A") (A') (A')
                 (A') (A") (A') (A') (A") (A') (A') (A") (A') (A")
                 (A') (A") (A') (A') (A') (A') (A") (A') (A") (A')
                 (A") (A') (A") (A') (A') (A') (A') (A") (A") (A")
                 (A') (A") (A") (A') (A') (A") (A") (A') (A') (A")
                 (A") (A') (A") (A') (A') (A') (A') (A') (A') (A')
                 (A") (A') (A') (A') (A") (A') (A') (A') (A') (A")
                 (A') (A') (A") (A") (A') (A') (A') (A') (A') (A')
                 (A') (A") (A') (A') (A") (A") (A") (A') (A") (A')
                 (A') (A') (A') (A') (A") (A") (A") (A') (A") (A')
                 (A") (A') (A') (A') (A') (A") (A') (A') (A') (A")
                 (A') (A') (A') (A') (A") (A') (A') (A") (A") (A')
                 (A') (A') (A') (A') (A')
 The electronic state is 1-A'.
 Alpha  occ. eigenvalues --  -20.61350 -20.55076 -15.54700 -11.38330 -11.27519
 Alpha  occ. eigenvalues --   -1.47063  -1.36734  -1.19633  -0.97830  -0.81606
 Alpha  occ. eigenvalues --   -0.70928  -0.69889  -0.69576  -0.62972  -0.60205
 Alpha  occ. eigenvalues --   -0.58656  -0.53533  -0.48908  -0.46649  -0.41052
 Alpha virt. eigenvalues --    0.13735   0.15413   0.16693   0.18261   0.19447
 Alpha virt. eigenvalues --    0.25215   0.32210   0.33574   0.35770   0.41451
 Alpha virt. eigenvalues --    0.45241   0.45898   0.47067   0.50775   0.54217
 Alpha virt. eigenvalues --    0.55308   0.57834   0.59081   0.59540   0.63073
 Alpha virt. eigenvalues --    0.64817   0.67831   0.70247   0.70744   0.72091
 Alpha virt. eigenvalues --    0.74546   0.74569   0.79555   0.80022   0.80358
 Alpha virt. eigenvalues --    0.89375   0.90389   0.91731   0.92819   0.96770
 Alpha virt. eigenvalues --    1.00257   1.04242   1.07899   1.10283   1.14195
 Alpha virt. eigenvalues --    1.20227   1.21943   1.22274   1.27319   1.31025
 Alpha virt. eigenvalues --    1.31390   1.35637   1.35944   1.39375   1.41269
 Alpha virt. eigenvalues --    1.45877   1.47448   1.50508   1.52555   1.55790
 Alpha virt. eigenvalues --    1.57789   1.58512   1.62580   1.73756   1.78833
 Alpha virt. eigenvalues --    1.81626   1.82139   1.85142   1.88704   1.96053
 Alpha virt. eigenvalues --    1.99293   2.03897   2.10914   2.20702   2.26671
 Alpha virt. eigenvalues --    2.28690   2.30160   2.32931   2.37763   2.40784
 Alpha virt. eigenvalues --    2.54698   2.60388   2.60840   2.71722   2.75628
 Alpha virt. eigenvalues --    2.80070   2.80427   2.89888   2.92830   2.95144
 Alpha virt. eigenvalues --    2.96159   3.05520   3.06095   3.12218   3.18826
 Alpha virt. eigenvalues --    3.23097   3.23206   3.25733   3.25948   3.27298
 Alpha virt. eigenvalues --    3.34536   3.36491   3.38997   3.39987   3.47701
 Alpha virt. eigenvalues --    3.47781   3.55583   3.55877   3.58017   3.58344
 Alpha virt. eigenvalues --    3.61415   3.61518   3.65646   3.70563   3.72559
 Alpha virt. eigenvalues --    3.74375   3.74821   3.79076   3.80119   3.82629
 Alpha virt. eigenvalues --    3.88195   3.91917   3.92740   3.94898   3.95831
 Alpha virt. eigenvalues --    4.00425   4.03500   4.07701   4.09119   4.11778
 Alpha virt. eigenvalues --    4.17409   4.18289   4.23750   4.25066   4.25928
 Alpha virt. eigenvalues --    4.31397   4.35029   4.38930   4.40477   4.43894
 Alpha virt. eigenvalues --    4.47194   4.49483   4.49926   4.51188   4.60188
 Alpha virt. eigenvalues --    4.60841   4.66493   4.68642   4.69893   4.77130
 Alpha virt. eigenvalues --    4.82678   4.89425   5.03438   5.05666   5.11768
 Alpha virt. eigenvalues --    5.13059   5.19695   5.19945   5.28729   5.30106
 Alpha virt. eigenvalues --    5.36626   5.46044   5.50093   5.52323   5.55013
 Alpha virt. eigenvalues --    5.59572   5.60896   5.63788   5.70931   5.76065
 Alpha virt. eigenvalues --    5.80541   5.85707   5.90997   5.96616   6.07078
 Alpha virt. eigenvalues --    6.07503   6.12063   6.15078   6.17782   6.18517
 Alpha virt. eigenvalues --    6.26028   6.37680   6.39942   6.47684   6.53303
 Alpha virt. eigenvalues --    6.67500   6.70828   6.84699   6.89075   6.94058
 Alpha virt. eigenvalues --    6.96497   7.05123   7.13669   7.17711   7.23317
 Alpha virt. eigenvalues --    7.26570   7.33976   7.37389   7.42643   7.46208
 Alpha virt. eigenvalues --    7.60386   7.68746   7.88114   8.07135   8.40025
 Alpha virt. eigenvalues --   15.34750  16.14015  16.22572  16.34411  16.47569
 Alpha virt. eigenvalues --   16.58581  16.78269  17.12380  21.04879  21.69962
 Alpha virt. eigenvalues --   22.00869  22.75657  26.13886  26.24720  26.48312
 Alpha virt. eigenvalues --   26.75411  27.15546  27.30940  29.02030  29.41476
 Alpha virt. eigenvalues --   39.27716  39.27851  39.30918  39.47772  39.60612
 Alpha virt. eigenvalues --   41.37804  41.43885  41.46760  41.53450  41.54547
 Alpha virt. eigenvalues --   41.63635  41.68725  41.71267  41.73369  41.74490
 Alpha virt. eigenvalues --   43.85127  43.87365  43.89105  43.92867  43.94192
 Alpha virt. eigenvalues --   43.98305  44.01140  44.06692  44.13829  44.18760
 Alpha virt. eigenvalues --   80.98457  81.54066  81.69744  81.76374  81.82050
 Alpha virt. eigenvalues --   81.93554  85.67415  86.51722 109.19559 109.62999
 Alpha virt. eigenvalues --  109.89717 116.34526 138.29324 138.38885 138.55165
 Alpha virt. eigenvalues --  138.77746 139.16726 139.24975 149.61055 150.03463
          Condensed to atoms (all electrons):
               1          2          3          4          5          6
     1  C    4.192514   0.417450   0.748063  -0.030124   0.358852  -0.075829
     2  O    0.417450   7.756906  -0.084611   0.324678  -0.071671   0.003549
     3  O    0.748063  -0.084611   7.848878   0.006553  -0.088445  -0.000698
     4  H   -0.030124   0.324678   0.006553   0.447864   0.009807  -0.000794
     5  C    0.358852  -0.071671  -0.088445   0.009807   4.754198   0.363631
     6  N   -0.075829   0.003549  -0.000698  -0.000794   0.363631   6.259136
     7  H   -0.035447   0.003580   0.001055  -0.000751   0.412091  -0.025238
     8  H   -0.035447   0.003580   0.001055  -0.000751   0.412091  -0.025238
     9  H   -0.003115   0.000231   0.005457  -0.000060  -0.046336   0.403819
    10  H   -0.003115   0.000231   0.005457  -0.000060  -0.046336   0.403819
               7          8          9         10
     1  C   -0.035447  -0.035447  -0.003115  -0.003115
     2  O    0.003580   0.003580   0.000231   0.000231
     3  O    0.001055   0.001055   0.005457   0.005457
     4  H   -0.000751  -0.000751  -0.000060  -0.000060
     5  C    0.412091   0.412091  -0.046336  -0.046336
     6  N   -0.025238  -0.025238   0.403819   0.403819
     7  H    0.559177  -0.018849  -0.006579   0.007701
     8  H   -0.018849   0.559177   0.007701  -0.006579
     9  H   -0.006579   0.007701   0.552445  -0.035750
    10  H    0.007701  -0.006579  -0.035750   0.552445
 Mulliken charges:
               1
     1  C    0.466197
     2  O   -0.353921
     3  O   -0.442765
     4  H    0.243638
     5  C   -0.057884
     6  N   -0.306158
     7  H    0.103260
     8  H    0.103260
     9  H    0.122187
    10  H    0.122187
 Sum of Mulliken charges =   0.00000
 Mulliken charges with hydrogens summed into heavy atoms:
               1
     1  C    0.466197
     2  O   -0.110284
     3  O   -0.442765
     5  C    0.148635
     6  N   -0.061784
 Electronic spatial extent (au):  <R**2>=            419.2295
 Charge=              0.0000 electrons
 Dipole moment (field-independent basis, Debye):
    X=              1.0185    Y=              0.6928    Z=              0.0000  Tot=              1.2318
 Quadrupole moment (field-independent basis, Debye-Ang):
   XX=            -32.8192   YY=            -29.7073   ZZ=            -27.0571
   XY=              2.7747   XZ=              0.0000   YZ=              0.0000
 Traceless Quadrupole moment (field-independent basis, Debye-Ang):
   XX=             -2.9580   YY=              0.1539   ZZ=              2.8041
   XY=              2.7747   XZ=              0.0000   YZ=              0.0000
 Octapole moment (field-independent basis, Debye-Ang**2):
  XXX=             -0.5796  YYY=             39.9287  ZZZ=              0.0000  XYY=             -1.1462
  XXY=             -7.9627  XXZ=              0.0000  XZZ=             -1.3484  YZZ=             -1.5729
  YYZ=              0.0000  XYZ=              0.0000
 Hexadecapole moment (field-independent basis, Debye-Ang**3):
 XXXX=           -145.9968 YYYY=           -324.8692 ZZZZ=            -33.4659 XXXY=            -13.9271
 XXXZ=              0.0000 YYYX=             -1.2558 YYYZ=              0.0000 ZZZX=              0.0000
 ZZZY=              0.0000 XXYY=            -75.6991 XXZZ=            -26.3384 YYZZ=            -55.0118
 XXYZ=              0.0000 YYXZ=              0.0000 ZZXY=             -3.5833
 N-N= 1.797404034807D+02 E-N=-1.026010913390D+03  KE= 2.826752803986D+02
 Symmetry A'   KE= 2.698508146311D+02
 Symmetry A"   KE= 1.282446576752D+01
 Leave Link  601 at Sat Oct 15 03:38:47 2016, MaxMem=  5368709120 cpu:        26.5
 (Enter /public/home/users/shu004/g09/l9999.exe)
 1\1\GINC-A746\SP\RCCSD(T)-Full\Gen\C2H5N1O2\SHU004\15-Oct-2016\0\\#P C
 CSD(T)=Full gen\\start best geom PCCP paper\\0,1\C\O,1,1.3486\O,1,1.20
 25,2,123.0718\H,2,0.9651,1,107.1011,3,0.,0\C,1,1.5141,3,125.77,2,180.,
 0\N,5,1.442,1,115.3802,3,0.,0\H,5,1.0905,1,107.3709,3,-123.1312,0\H,5,
 1.0905,1,107.3709,3,123.1312,0\H,6,1.0109,5,110.5508,1,-58.6741,0\H,6,
 1.0109,5,110.5508,1,58.6741,0\\Version=ES64L-G09RevD.01\State=1-A'\HF=
 -282.9495043\MP2=-284.2191923\MP3=-284.2376402\MP4D=-284.2586974\MP4DQ
 =-284.2348434\MP4SDQ=-284.2470785\CCSD=-284.2440138\CCSD(T)=-284.28908
 63\RMSD=3.501e-09\PG=CS [SG(C2H1N1O2),X(H4)]\\@


 BE CAREFUL NOT TO BECOME TOO GOOD OF A SONGBIRD OR 
 THEY'LL THROW YOU INTO A CAGE.

                                    -- SNOOPY TO WOODSTOCK
 Job cpu time:       0 days 13 hours  6 minutes 14.2 seconds.
 File lengths (MBytes):  RWF=  10221 Int=      0 D2E=      0 Chk=      5 Scr=      1
 Normal termination of Gaussian 09 at Sat Oct 15 03:38:48 2016.
