 Entering Gaussian System, Link 0=g09
 Input=VII_tcc_Best_geom_CCSDT_CVTZ.gjf
 Output=VII_tcc_Best_geom_CCSDT_CVTZ.log
 AtFile(1): /public/home/users/shu004/Basis_sets/cc-pCVTZ.gbs
            !  cc-pCVTZ  EMSL  Basis Set Exchange Library   10/10/16 1:18 AM
            ! Elements                             References
            ! --------                             ----------
            ! H     : T.H. Dunning, Jr. J. Chem. Phys. 90, 1007 (1989).
            ! He    : D.E. Woon and T.H. Dunning, Jr. J. Chem. Phys. 100, 2975 (1994).
            ! Li - Ne: T.H. Dunning, Jr. J. Chem. Phys. 90, 1007 (1989).
            ! Na - Mg: D.E. Woon and T.H. Dunning, Jr.  (to be published)
            ! Al - Ar: D.E. Woon and T.H. Dunning, Jr.  J. Chem. Phys. 98, 1358 (1993).
            ! Ca     : J. Koput and K.A. Peterson, J. Phys. Chem. A, 106, 9595 (2002).
            ! Sc - Zn: N.B. Balabanov and K.A. Peterson, J. Chem. Phys, 123, 064107 (2005)
            ! Ga - Kr: A.K. Wilson, D.E. Woon, K.A. Peterson, T.H. Dunning, Jr., J. Chem. Phys., 110, 7667 (1999)
            !
            ! Elements                             References
            ! --------                             ----------
            ! Li - Ne: T.H. Dunning, Jr. J. Chem. Phys. 90, 1007 (1989) and D. E. Woon and
            ! T.H. Dunning, Jr. J. Chem. Phys. 103, 4572 (1995).
            ! Al - Ar: K.A. Peterson and T.H. Dunning, Jr. J. Chem. Phys. 117, 10548 (2002)
            ! Ca     : K.A. Peterson (to be published)
            !
            -H  0
            cc-pVTZ
            ****
            C     0
            S   8   1.00
               8236.0000000              0.0005310
               1235.0000000              0.0041080
                280.8000000              0.0210870
                 79.2700000              0.0818530
                 25.5900000              0.2348170
                  8.9970000              0.4344010
                  3.3190000              0.3461290
                  0.3643000             -0.0089830
            S   8   1.00
               8236.0000000             -0.0001130
               1235.0000000             -0.0008780
                280.8000000             -0.0045400
                 79.2700000             -0.0181330
                 25.5900000             -0.0557600
                  8.9970000             -0.1268950
                  3.3190000             -0.1703520
                  0.3643000              0.5986840
            S   1   1.00
                  0.9059000              1.0000000
            S   1   1.00
                  0.1285000              1.0000000
            S   1   1.00
                  4.2920000              1.0000000
            S   1   1.00
                 11.8760000              1.0000000
            P   3   1.00
                 18.7100000              0.0140310
                  4.1330000              0.0868660
                  1.2000000              0.2902160
            P   1   1.00
                  0.3827000              1.0000000
            P   1   1.00
                  0.1209000              1.0000000
            P   1   1.00
                  8.7780000              1.0000000
            P   1   1.00
                 33.1900000              1.0000000
            D   1   1.00
                  1.0970000              1.0000000
            D   1   1.00
                  0.3180000              1.0000000
            D   1   1.00
                 14.8390000              1.0000000
            F   1   1.00
                  0.7610000              1.0000000
            ****
            N     0
            S   8   1.00
              11420.0000000              0.0005230
               1712.0000000              0.0040450
                389.3000000              0.0207750
                110.0000000              0.0807270
                 35.5700000              0.2330740
                 12.5400000              0.4335010
                  4.6440000              0.3474720
                  0.5118000             -0.0085080
            S   8   1.00
              11420.0000000             -0.0001150
               1712.0000000             -0.0008950
                389.3000000             -0.0046240
                110.0000000             -0.0185280
                 35.5700000             -0.0573390
                 12.5400000             -0.1320760
                  4.6440000             -0.1725100
                  0.5118000              0.5999440
            S   1   1.00
                  1.2930000              1.0000000
            S   1   1.00
                  0.1787000              1.0000000
            S   1   1.00
                  5.9520000              1.0000000
            S   1   1.00
                 16.2010000              1.0000000
            P   3   1.00
                 26.6300000              0.0146700
                  5.9480000              0.0917640
                  1.7420000              0.2986830
            P   1   1.00
                  0.5550000              1.0000000
            P   1   1.00
                  0.1725000              1.0000000
            P   1   1.00
                 11.8710000              1.0000000
            P   1   1.00
                 44.8490000              1.0000000
            D   1   1.00
                  1.6540000              1.0000000
            D   1   1.00
                  0.4690000              1.0000000
            D   1   1.00
                 14.2000000              1.0000000
            F   1   1.00
                  1.0930000              1.0000000
            ****
            O     0
            S   8   1.00
              15330.0000000              0.0005080
               2299.0000000              0.0039290
                522.4000000              0.0202430
                147.3000000              0.0791810
                 47.5500000              0.2306870
                 16.7600000              0.4331180
                  6.2070000              0.3502600
                  0.6882000             -0.0081540
            S   8   1.00
              15330.0000000             -0.0001150
               2299.0000000             -0.0008950
                522.4000000             -0.0046360
                147.3000000             -0.0187240
                 47.5500000             -0.0584630
                 16.7600000             -0.1364630
                  6.2070000             -0.1757400
                  0.6882000              0.6034180
            S   1   1.00
                  1.7520000              1.0000000
            S   1   1.00
                  0.2384000              1.0000000
            S   1   1.00
                  7.8450000              1.0000000
            S   1   1.00
                 21.0320000              1.0000000
            P   3   1.00
                 34.4600000              0.0159280
                  7.7490000              0.0997400
                  2.2800000              0.3104920
            P   1   1.00
                  0.7156000              1.0000000
            P   1   1.00
                  0.2140000              1.0000000
            P   1   1.00
                 15.1590000              1.0000000
            P   1   1.00
                 57.4370000              1.0000000
            D   1   1.00
                  2.3140000              1.0000000
            D   1   1.00
                  0.6450000              1.0000000
            D   1   1.00
                 15.8580000              1.0000000
            F   1   1.00
                  1.4280000              1.0000000
            ****
 Initial command:
 /public/home/users/shu004/g09/l1.exe "/public/home/users/shu004/scratch/Gau-11511.inp" -scrdir="/public/home/users/shu004/scratch/"
 Entering Link 1 = /public/home/users/shu004/g09/l1.exe PID=     11512.
  
 Copyright (c) 1988,1990,1992,1993,1995,1998,2003,2009,2013,
            Gaussian, Inc.  All Rights Reserved.
  
 This is part of the Gaussian(R) 09 program.  It is based on
 the Gaussian(R) 03 system (copyright 2003, Gaussian, Inc.),
 the Gaussian(R) 98 system (copyright 1998, Gaussian, Inc.),
 the Gaussian(R) 94 system (copyright 1995, Gaussian, Inc.),
 the Gaussian 92(TM) system (copyright 1992, Gaussian, Inc.),
 the Gaussian 90(TM) system (copyright 1990, Gaussian, Inc.),
 the Gaussian 88(TM) system (copyright 1988, Gaussian, Inc.),
 the Gaussian 86(TM) system (copyright 1986, Carnegie Mellon
 University), and the Gaussian 82(TM) system (copyright 1983,
 Carnegie Mellon University). Gaussian is a federally registered
 trademark of Gaussian, Inc.
  
 This software contains proprietary and confidential information,
 including trade secrets, belonging to Gaussian, Inc.
  
 This software is provided under written license and may be
 used, copied, transmitted, or stored only in accord with that
 written license.
  
 The following legend is applicable only to US Government
 contracts under FAR:
  
                    RESTRICTED RIGHTS LEGEND
  
 Use, reproduction and disclosure by the US Government is
 subject to restrictions as set forth in subparagraphs (a)
 and (c) of the Commercial Computer Software - Restricted
 Rights clause in FAR 52.227-19.
  
 Gaussian, Inc.
 340 Quinnipiac St., Bldg. 40, Wallingford CT 06492
  
  
 ---------------------------------------------------------------
 Warning -- This program may not be used in any manner that
 competes with the business of Gaussian, Inc. or will provide
 assistance to any competitor of Gaussian, Inc.  The licensee
 of this program is prohibited from giving any competitor of
 Gaussian, Inc. access to this program.  By using this program,
 the user acknowledges that Gaussian, Inc. is engaged in the
 business of creating and licensing software in the field of
 computational chemistry and represents and warrants to the
 licensee that it is not a competitor of Gaussian, Inc. and that
 it will not use this program in any manner prohibited above.
 ---------------------------------------------------------------
  

 Cite this work as:
 Gaussian 09, Revision D.01,
 M. J. Frisch, G. W. Trucks, H. B. Schlegel, G. E. Scuseria, 
 M. A. Robb, J. R. Cheeseman, G. Scalmani, V. Barone, B. Mennucci, 
 G. A. Petersson, H. Nakatsuji, M. Caricato, X. Li, H. P. Hratchian, 
 A. F. Izmaylov, J. Bloino, G. Zheng, J. L. Sonnenberg, M. Hada, 
 M. Ehara, K. Toyota, R. Fukuda, J. Hasegawa, M. Ishida, T. Nakajima, 
 Y. Honda, O. Kitao, H. Nakai, T. Vreven, J. A. Montgomery, Jr., 
 J. E. Peralta, F. Ogliaro, M. Bearpark, J. J. Heyd, E. Brothers, 
 K. N. Kudin, V. N. Staroverov, T. Keith, R. Kobayashi, J. Normand, 
 K. Raghavachari, A. Rendell, J. C. Burant, S. S. Iyengar, J. Tomasi, 
 M. Cossi, N. Rega, J. M. Millam, M. Klene, J. E. Knox, J. B. Cross, 
 V. Bakken, C. Adamo, J. Jaramillo, R. Gomperts, R. E. Stratmann, 
 O. Yazyev, A. J. Austin, R. Cammi, C. Pomelli, J. W. Ochterski, 
 R. L. Martin, K. Morokuma, V. G. Zakrzewski, G. A. Voth, 
 P. Salvador, J. J. Dannenberg, S. Dapprich, A. D. Daniels, 
 O. Farkas, J. B. Foresman, J. V. Ortiz, J. Cioslowski, 
 and D. J. Fox, Gaussian, Inc., Wallingford CT, 2013.
 
 ******************************************
 Gaussian 09:  ES64L-G09RevD.01 24-Apr-2013
                26-Dec-2016 
 ******************************************
 %chk=VII_tcc_Best_geom_CCSDT_CVTZ.chk
 %nprocshared=12
 Will use up to   12 processors via shared memory.
 %mem=100GB
 --------------
 #P CCSD(T) gen
 --------------
 1/38=1/1;
 2/12=2,17=6,18=5,40=1/2;
 3/5=7,11=9,16=1,25=1,30=1/1,2,3;
 4//1;
 5/5=2,38=5/2;
 8/6=4,9=120000,10=1/1,4;
 9/5=7,14=2/13;
 6/7=2,8=2,9=2,10=2/1;
 99/5=1,9=1/99;
 Leave Link    1 at Mon Dec 26 19:47:13 2016, MaxMem= 13421772800 cpu:         1.7
 (Enter /public/home/users/shu004/g09/l101.exe)
 ------
 VII_SP
 ------
 Symbolic Z-matrix:
 Charge =  0 Multiplicity = 1
 C
 O                    1    B1
 O                    1    B2       2    A1
 H                    2    B3       1    A2       3    D1       0
 C                    1    B4       3    A3       2    D2       0
 N                    5    B5       1    A4       3    D3       0
 H                    5    B6       1    A5       3    D4       0
 H                    5    B7       1    A6       3    D5       0
 H                    6    B8       5    A7       1    D6       0
 H                    6    B9       5    A8       1    D7       0
       Variables:
  B1                    1.34574                  
  B2                    1.19815                  
  B3                    0.96472                  
  B4                    1.52715                  
  B5                    1.44048                  
  B6                    1.08922                  
  B7                    1.08922                  
  B8                    1.00566                  
  B9                    1.00566                  
  A1                  121.2126                   
  A2                  108.75236                  
  A3                  122.19982                  
  A4                  118.81834                  
  A5                  105.99599                  
  A6                  105.99599                  
  A7                  116.68391                  
  A8                  116.68391                  
  D1                  180.                       
  D2                  180.                       
  D3                  180.                       
  D4                   56.33574                  
  D5                  -56.33574                  
  D6                  -68.87807                  
  D7                   68.87807                  
 
 NAtoms=     10 NQM=       10 NQMF=       0 NMMI=      0 NMMIF=      0
                NMic=       0 NMicF=      0.
                    Isotopes and Nuclear Properties:
 (Nuclear quadrupole moments (NQMom) in fm**2, nuclear magnetic moments (NMagM)
  in nuclear magnetons)

  Atom         1           2           3           4           5           6           7           8           9          10
 IAtWgt=          12          16          16           1          12          14           1           1           1           1
 AtmWgt=  12.0000000  15.9949146  15.9949146   1.0078250  12.0000000  14.0030740   1.0078250   1.0078250   1.0078250   1.0078250
 NucSpn=           0           0           0           1           0           2           1           1           1           1
 AtZEff=   0.0000000   0.0000000   0.0000000   0.0000000   0.0000000   0.0000000   0.0000000   0.0000000   0.0000000   0.0000000
 NQMom=    0.0000000   0.0000000   0.0000000   0.0000000   0.0000000   2.0440000   0.0000000   0.0000000   0.0000000   0.0000000
 NMagM=    0.0000000   0.0000000   0.0000000   2.7928460   0.0000000   0.4037610   2.7928460   2.7928460   2.7928460   2.7928460
 AtZNuc=   6.0000000   8.0000000   8.0000000   1.0000000   6.0000000   7.0000000   1.0000000   1.0000000   1.0000000   1.0000000
 Leave Link  101 at Mon Dec 26 19:47:14 2016, MaxMem= 13421772800 cpu:         3.4
 (Enter /public/home/users/shu004/g09/l202.exe)
                          Input orientation:                          
 ---------------------------------------------------------------------
 Center     Atomic      Atomic             Coordinates (Angstroms)
 Number     Number       Type             X           Y           Z
 ---------------------------------------------------------------------
      1          6           0        0.000000    0.000000    0.000000
      2          8           0        0.000000    0.000000    1.345736
      3          8           0        1.024715    0.000000   -0.620898
      4          1           0       -0.913510    0.000000    1.655872
      5          6           0       -1.365657    0.000000   -0.683500
      6          7           0       -2.551449    0.000000    0.134343
      7          1           0       -1.374303   -0.871458   -1.336868
      8          1           0       -1.374303    0.871458   -1.336868
      9          1           0       -2.739373   -0.838185    0.657296
     10          1           0       -2.739373    0.838185    0.657296
 ---------------------------------------------------------------------
                    Distance matrix (angstroms):
                    1          2          3          4          5
     1  C    0.000000
     2  O    1.345736   0.000000
     3  O    1.198147   2.217586   0.000000
     4  H    1.891141   0.964720   2.990050   0.000000
     5  C    1.527151   2.445979   2.391192   2.382666   0.000000
     6  N    2.554984   2.824423   3.655043   2.235598   1.440476
     7  H    2.106031   3.137596   2.650914   3.150915   1.089222
     8  H    2.106031   3.137596   2.650914   3.150915   1.089222
     9  H    2.939176   2.946297   4.062597   2.243543   2.094608
    10  H    2.939176   2.946297   4.062597   2.243543   2.094608
                    6          7          8          9         10
     6  N    0.000000
     7  H    2.075951   0.000000
     8  H    2.075951   1.742917   0.000000
     9  H    1.005658   2.416860   2.960234   0.000000
    10  H    1.005658   2.960234   2.416860   1.676369   0.000000
 Stoichiometry    C2H5NO2
 Framework group  CS[SG(C2HNO2),X(H4)]
 Deg. of freedom    15
 Full point group                 CS      NOp   2
 Largest Abelian subgroup         CS      NOp   2
 Largest concise Abelian subgroup CS      NOp   2
                         Standard orientation:                         
 ---------------------------------------------------------------------
 Center     Atomic      Atomic             Coordinates (Angstroms)
 Number     Number       Type             X           Y           Z
 ---------------------------------------------------------------------
      1          6           0        0.000000    0.678907    0.000000
      2          8           0       -1.337854    0.533471    0.000000
      3          8           0        0.506518    1.764722    0.000000
      4          1           0       -1.547449   -0.408206    0.000000
      5          6           0        0.827086   -0.604884    0.000000
      6          7           0        0.142184   -1.872117    0.000000
      7          1           0        1.477562   -0.542869    0.871458
      8          1           0        1.477562   -0.542869   -0.871458
      9          1           0       -0.357397   -2.115457    0.838185
     10          1           0       -0.357397   -2.115457   -0.838185
 ---------------------------------------------------------------------
 Rotational constants (GHZ):      9.9652157      4.0049801      2.9552908
 Leave Link  202 at Mon Dec 26 19:47:14 2016, MaxMem= 13421772800 cpu:         0.7
 (Enter /public/home/users/shu004/g09/l301.exe)
 General basis read from cards:  (5D, 7F)
 Centers:       4      7      8      9     10
 cc-pVTZ
 ****
 Centers:       1      5
 S 8 1.00
     Exponent=  8.2360000000D+03 Coefficients=  5.3100000000D-04
     Exponent=  1.2350000000D+03 Coefficients=  4.1080000000D-03
     Exponent=  2.8080000000D+02 Coefficients=  2.1087000000D-02
     Exponent=  7.9270000000D+01 Coefficients=  8.1853000000D-02
     Exponent=  2.5590000000D+01 Coefficients=  2.3481700000D-01
     Exponent=  8.9970000000D+00 Coefficients=  4.3440100000D-01
     Exponent=  3.3190000000D+00 Coefficients=  3.4612900000D-01
     Exponent=  3.6430000000D-01 Coefficients= -8.9830000000D-03
 S 8 1.00
     Exponent=  8.2360000000D+03 Coefficients= -1.1300000000D-04
     Exponent=  1.2350000000D+03 Coefficients= -8.7800000000D-04
     Exponent=  2.8080000000D+02 Coefficients= -4.5400000000D-03
     Exponent=  7.9270000000D+01 Coefficients= -1.8133000000D-02
     Exponent=  2.5590000000D+01 Coefficients= -5.5760000000D-02
     Exponent=  8.9970000000D+00 Coefficients= -1.2689500000D-01
     Exponent=  3.3190000000D+00 Coefficients= -1.7035200000D-01
     Exponent=  3.6430000000D-01 Coefficients=  5.9868400000D-01
 S 1 1.00
     Exponent=  9.0590000000D-01 Coefficients=  1.0000000000D+00
 S 1 1.00
     Exponent=  1.2850000000D-01 Coefficients=  1.0000000000D+00
 S 1 1.00
     Exponent=  4.2920000000D+00 Coefficients=  1.0000000000D+00
 S 1 1.00
     Exponent=  1.1876000000D+01 Coefficients=  1.0000000000D+00
 P 3 1.00
     Exponent=  1.8710000000D+01 Coefficients=  1.4031000000D-02
     Exponent=  4.1330000000D+00 Coefficients=  8.6866000000D-02
     Exponent=  1.2000000000D+00 Coefficients=  2.9021600000D-01
 P 1 1.00
     Exponent=  3.8270000000D-01 Coefficients=  1.0000000000D+00
 P 1 1.00
     Exponent=  1.2090000000D-01 Coefficients=  1.0000000000D+00
 P 1 1.00
     Exponent=  8.7780000000D+00 Coefficients=  1.0000000000D+00
 P 1 1.00
     Exponent=  3.3190000000D+01 Coefficients=  1.0000000000D+00
 D 1 1.00
     Exponent=  1.0970000000D+00 Coefficients=  1.0000000000D+00
 D 1 1.00
     Exponent=  3.1800000000D-01 Coefficients=  1.0000000000D+00
 D 1 1.00
     Exponent=  1.4839000000D+01 Coefficients=  1.0000000000D+00
 F 1 1.00
     Exponent=  7.6100000000D-01 Coefficients=  1.0000000000D+00
 ****
 Centers:       6
 S 8 1.00
     Exponent=  1.1420000000D+04 Coefficients=  5.2300000000D-04
     Exponent=  1.7120000000D+03 Coefficients=  4.0450000000D-03
     Exponent=  3.8930000000D+02 Coefficients=  2.0775000000D-02
     Exponent=  1.1000000000D+02 Coefficients=  8.0727000000D-02
     Exponent=  3.5570000000D+01 Coefficients=  2.3307400000D-01
     Exponent=  1.2540000000D+01 Coefficients=  4.3350100000D-01
     Exponent=  4.6440000000D+00 Coefficients=  3.4747200000D-01
     Exponent=  5.1180000000D-01 Coefficients= -8.5080000000D-03
 S 8 1.00
     Exponent=  1.1420000000D+04 Coefficients= -1.1500000000D-04
     Exponent=  1.7120000000D+03 Coefficients= -8.9500000000D-04
     Exponent=  3.8930000000D+02 Coefficients= -4.6240000000D-03
     Exponent=  1.1000000000D+02 Coefficients= -1.8528000000D-02
     Exponent=  3.5570000000D+01 Coefficients= -5.7339000000D-02
     Exponent=  1.2540000000D+01 Coefficients= -1.3207600000D-01
     Exponent=  4.6440000000D+00 Coefficients= -1.7251000000D-01
     Exponent=  5.1180000000D-01 Coefficients=  5.9994400000D-01
 S 1 1.00
     Exponent=  1.2930000000D+00 Coefficients=  1.0000000000D+00
 S 1 1.00
     Exponent=  1.7870000000D-01 Coefficients=  1.0000000000D+00
 S 1 1.00
     Exponent=  5.9520000000D+00 Coefficients=  1.0000000000D+00
 S 1 1.00
     Exponent=  1.6201000000D+01 Coefficients=  1.0000000000D+00
 P 3 1.00
     Exponent=  2.6630000000D+01 Coefficients=  1.4670000000D-02
     Exponent=  5.9480000000D+00 Coefficients=  9.1764000000D-02
     Exponent=  1.7420000000D+00 Coefficients=  2.9868300000D-01
 P 1 1.00
     Exponent=  5.5500000000D-01 Coefficients=  1.0000000000D+00
 P 1 1.00
     Exponent=  1.7250000000D-01 Coefficients=  1.0000000000D+00
 P 1 1.00
     Exponent=  1.1871000000D+01 Coefficients=  1.0000000000D+00
 P 1 1.00
     Exponent=  4.4849000000D+01 Coefficients=  1.0000000000D+00
 D 1 1.00
     Exponent=  1.6540000000D+00 Coefficients=  1.0000000000D+00
 D 1 1.00
     Exponent=  4.6900000000D-01 Coefficients=  1.0000000000D+00
 D 1 1.00
     Exponent=  1.4200000000D+01 Coefficients=  1.0000000000D+00
 F 1 1.00
     Exponent=  1.0930000000D+00 Coefficients=  1.0000000000D+00
 ****
 Centers:       2      3
 S 8 1.00
     Exponent=  1.5330000000D+04 Coefficients=  5.0800000000D-04
     Exponent=  2.2990000000D+03 Coefficients=  3.9290000000D-03
     Exponent=  5.2240000000D+02 Coefficients=  2.0243000000D-02
     Exponent=  1.4730000000D+02 Coefficients=  7.9181000000D-02
     Exponent=  4.7550000000D+01 Coefficients=  2.3068700000D-01
     Exponent=  1.6760000000D+01 Coefficients=  4.3311800000D-01
     Exponent=  6.2070000000D+00 Coefficients=  3.5026000000D-01
     Exponent=  6.8820000000D-01 Coefficients= -8.1540000000D-03
 S 8 1.00
     Exponent=  1.5330000000D+04 Coefficients= -1.1500000000D-04
     Exponent=  2.2990000000D+03 Coefficients= -8.9500000000D-04
     Exponent=  5.2240000000D+02 Coefficients= -4.6360000000D-03
     Exponent=  1.4730000000D+02 Coefficients= -1.8724000000D-02
     Exponent=  4.7550000000D+01 Coefficients= -5.8463000000D-02
     Exponent=  1.6760000000D+01 Coefficients= -1.3646300000D-01
     Exponent=  6.2070000000D+00 Coefficients= -1.7574000000D-01
     Exponent=  6.8820000000D-01 Coefficients=  6.0341800000D-01
 S 1 1.00
     Exponent=  1.7520000000D+00 Coefficients=  1.0000000000D+00
 S 1 1.00
     Exponent=  2.3840000000D-01 Coefficients=  1.0000000000D+00
 S 1 1.00
     Exponent=  7.8450000000D+00 Coefficients=  1.0000000000D+00
 S 1 1.00
     Exponent=  2.1032000000D+01 Coefficients=  1.0000000000D+00
 P 3 1.00
     Exponent=  3.4460000000D+01 Coefficients=  1.5928000000D-02
     Exponent=  7.7490000000D+00 Coefficients=  9.9740000000D-02
     Exponent=  2.2800000000D+00 Coefficients=  3.1049200000D-01
 P 1 1.00
     Exponent=  7.1560000000D-01 Coefficients=  1.0000000000D+00
 P 1 1.00
     Exponent=  2.1400000000D-01 Coefficients=  1.0000000000D+00
 P 1 1.00
     Exponent=  1.5159000000D+01 Coefficients=  1.0000000000D+00
 P 1 1.00
     Exponent=  5.7437000000D+01 Coefficients=  1.0000000000D+00
 D 1 1.00
     Exponent=  2.3140000000D+00 Coefficients=  1.0000000000D+00
 D 1 1.00
     Exponent=  6.4500000000D-01 Coefficients=  1.0000000000D+00
 D 1 1.00
     Exponent=  1.5858000000D+01 Coefficients=  1.0000000000D+00
 F 1 1.00
     Exponent=  1.4280000000D+00 Coefficients=  1.0000000000D+00
 ****
 Ernie: Thresh=  0.10000D-02 Tol=  0.10000D-05 Strict=F.
 Ernie:  15 primitive shells out of 195 were deleted.
 There are   211 symmetry adapted cartesian basis functions of A'  symmetry.
 There are   109 symmetry adapted cartesian basis functions of A"  symmetry.
 There are   183 symmetry adapted basis functions of A'  symmetry.
 There are   102 symmetry adapted basis functions of A"  symmetry.
   285 basis functions,   415 primitive gaussians,   320 cartesian basis functions
    20 alpha electrons       20 beta electrons
       nuclear repulsion energy       180.0741249866 Hartrees.
 IExCor=    0 DFT=F Ex=HF Corr=None ExCW=0 ScaHFX=  1.000000
 ScaDFX=  1.000000  1.000000  1.000000  1.000000 ScalE2=  1.000000  1.000000
 IRadAn=      0 IRanWt=     -1 IRanGd=            0 ICorTp=0 IEmpDi=  4
 NAtoms=   10 NActive=   10 NUniq=    8 SFac= 1.56D+00 NAtFMM=   60 NAOKFM=F Big=F
 Integral buffers will be    131072 words long.
 Raffenetti 1 integral format.
 Two-electron integral symmetry is turned on.
 Leave Link  301 at Mon Dec 26 19:47:15 2016, MaxMem= 13421772800 cpu:         2.9
 (Enter /public/home/users/shu004/g09/l302.exe)
 NPDir=0 NMtPBC=     1 NCelOv=     1 NCel=       1 NClECP=     1 NCelD=      1
         NCelK=      1 NCelE2=     1 NClLst=     1 CellRange=     0.0.
 One-electron integrals computed using PRISM.
 One-electron integral symmetry used in STVInt
 NBasis=   285 RedAO= T EigKep=  5.21D-04  NBF=   183   102
 NBsUse=   285 1.00D-06 EigRej= -1.00D+00 NBFU=   183   102
 Leave Link  302 at Mon Dec 26 19:47:16 2016, MaxMem= 13421772800 cpu:         5.1
 (Enter /public/home/users/shu004/g09/l303.exe)
 DipDrv:  MaxL=1.
 Leave Link  303 at Mon Dec 26 19:47:17 2016, MaxMem= 13421772800 cpu:         2.5
 (Enter /public/home/users/shu004/g09/l401.exe)
 ExpMin= 1.03D-01 ExpMax= 1.53D+04 ExpMxC= 5.22D+02 IAcc=1 IRadAn=         1 AccDes= 0.00D+00
 Harris functional with IExCor=  205 and IRadAn=       1 diagonalized for initial guess.
 HarFok:  IExCor=  205 AccDes= 0.00D+00 IRadAn=         1 IDoV= 1 UseB2=F ITyADJ=14
 ICtDFT=  3500011 ScaDFX=  1.000000  1.000000  1.000000  1.000000
 FoFCou: FMM=F IPFlag=           0 FMFlag=      100000 FMFlg1=           0
         NFxFlg=           0 DoJE=T BraDBF=F KetDBF=T FulRan=T
         wScrn=  0.000000 ICntrl=     500 IOpCl=  0 I1Cent=   200000004 NGrid=           0
         NMat0=    1 NMatS0=      1 NMatT0=    0 NMatD0=    1 NMtDS0=    0 NMtDT0=    0
 Petite list used in FoFCou.
 Harris En= -283.231044555014    
 JPrj=0 DoOrth=F DoCkMO=F.
 Initial guess orbital symmetries:
       Occupied  (A') (A') (A') (A') (A') (A') (A') (A') (A') (A')
                 (A') (A") (A') (A') (A") (A') (A") (A") (A') (A')
       Virtual   (A") (A') (A') (A") (A') (A') (A") (A') (A') (A')
                 (A") (A') (A') (A") (A') (A') (A') (A") (A') (A")
                 (A') (A') (A") (A') (A') (A') (A") (A') (A") (A')
                 (A") (A') (A') (A') (A") (A') (A") (A") (A') (A')
                 (A") (A') (A") (A') (A") (A') (A') (A") (A") (A')
                 (A') (A') (A') (A") (A') (A") (A') (A') (A') (A")
                 (A') (A") (A') (A') (A') (A") (A") (A') (A') (A")
                 (A') (A') (A") (A") (A') (A') (A") (A') (A') (A')
                 (A") (A') (A') (A') (A') (A") (A') (A") (A') (A")
                 (A') (A") (A') (A") (A') (A') (A") (A") (A') (A')
                 (A') (A") (A") (A') (A") (A') (A") (A') (A") (A')
                 (A") (A") (A') (A") (A') (A") (A") (A') (A') (A')
                 (A') (A") (A') (A') (A") (A") (A') (A") (A') (A')
                 (A") (A') (A") (A') (A') (A') (A") (A') (A") (A")
                 (A') (A') (A") (A") (A') (A') (A') (A') (A') (A")
                 (A') (A") (A') (A") (A') (A') (A') (A") (A') (A")
                 (A') (A') (A") (A') (A") (A') (A') (A') (A') (A")
                 (A') (A') (A") (A") (A') (A') (A") (A') (A") (A")
                 (A') (A") (A") (A') (A") (A') (A") (A') (A') (A")
                 (A") (A') (A") (A') (A') (A') (A') (A') (A') (A')
                 (A") (A') (A') (A') (A") (A') (A') (A') (A') (A")
                 (A') (A') (A") (A") (A') (A') (A') (A') (A') (A')
                 (A') (A") (A') (A') (A") (A') (A') (A') (A') (A")
                 (A") (A") (A') (A") (A') (A') (A") (A") (A') (A')
                 (A") (A") (A') (A') (A') (A") (A') (A') (A') (A")
                 (A') (A') (A') (A') (A") (A') (A') (A") (A") (A')
                 (A') (A') (A') (A') (A')
 The electronic state of the initial guess is 1-A'.
 Leave Link  401 at Mon Dec 26 19:47:18 2016, MaxMem= 13421772800 cpu:         8.2
 (Enter /public/home/users/shu004/g09/l502.exe)
 Closed shell SCF:
 Using DIIS extrapolation, IDIIS=  1040.
 Integral symmetry usage will be decided dynamically.
 Keep R1 ints in memory in symmetry-blocked form, NReq=1249114984.
 IVT=      332314 IEndB=      332314 NGot= 13421772800 MDV= 13003163492
 LenX= 13003163492 LenY= 13003060651
 Requested convergence on RMS density matrix=1.00D-08 within 128 cycles.
 Requested convergence on MAX density matrix=1.00D-06.
 Requested convergence on             energy=1.00D-06.
 No special actions if energy rises.
 FoFCou: FMM=F IPFlag=           0 FMFlag=           0 FMFlg1=           0
         NFxFlg=           0 DoJE=F BraDBF=F KetDBF=F FulRan=T
         wScrn=  0.000000 ICntrl=     600 IOpCl=  0 I1Cent=           0 NGrid=           0
         NMat0=    1 NMatS0=  40755 NMatT0=    0 NMatD0=    1 NMtDS0=    0 NMtDT0=    0
 Petite list used in FoFCou.

 Cycle   1  Pass 1  IDiag  1:
 E= -282.689847498399    
 DIIS: error= 4.92D-02 at cycle   1 NSaved=   1.
 NSaved= 1 IEnMin= 1 EnMin= -282.689847498399     IErMin= 1 ErrMin= 4.92D-02
 ErrMax= 4.92D-02  0.00D+00 EMaxC= 1.00D-01 BMatC= 6.89D-01 BMatP= 6.89D-01
 IDIUse=3 WtCom= 5.08D-01 WtEn= 4.92D-01
 Coeff-Com:  0.100D+01
 Coeff-En:   0.100D+01
 Coeff:      0.100D+01
 Gap=     0.445 Goal=   None    Shift=    0.000
 GapD=    0.445 DampG=2.000 DampE=0.500 DampFc=1.0000 IDamp=-1.
 RMSDP=1.68D-03 MaxDP=9.39D-02              OVMax= 1.31D-01

 Cycle   2  Pass 1  IDiag  1:
 E= -282.881793812998     Delta-E=       -0.191946314599 Rises=F Damp=F
 DIIS: error= 1.72D-02 at cycle   2 NSaved=   2.
 NSaved= 2 IEnMin= 2 EnMin= -282.881793812998     IErMin= 2 ErrMin= 1.72D-02
 ErrMax= 1.72D-02  0.00D+00 EMaxC= 1.00D-01 BMatC= 8.44D-02 BMatP= 6.89D-01
 IDIUse=3 WtCom= 8.28D-01 WtEn= 1.72D-01
 Coeff-Com:  0.182D+00 0.818D+00
 Coeff-En:   0.000D+00 0.100D+01
 Coeff:      0.151D+00 0.849D+00
 Gap=     0.553 Goal=   None    Shift=    0.000
 RMSDP=9.25D-04 MaxDP=7.05D-02 DE=-1.92D-01 OVMax= 5.71D-02

 Cycle   3  Pass 1  IDiag  1:
 E= -282.927855981782     Delta-E=       -0.046062168784 Rises=F Damp=F
 DIIS: error= 1.00D-02 at cycle   3 NSaved=   3.
 NSaved= 3 IEnMin= 3 EnMin= -282.927855981782     IErMin= 3 ErrMin= 1.00D-02
 ErrMax= 1.00D-02  0.00D+00 EMaxC= 1.00D-01 BMatC= 1.43D-02 BMatP= 8.44D-02
 IDIUse=3 WtCom= 9.00D-01 WtEn= 1.00D-01
 Coeff-Com: -0.239D-01 0.266D+00 0.758D+00
 Coeff-En:   0.000D+00 0.000D+00 0.100D+01
 Coeff:     -0.215D-01 0.239D+00 0.782D+00
 Gap=     0.518 Goal=   None    Shift=    0.000
 RMSDP=2.00D-04 MaxDP=9.80D-03 DE=-4.61D-02 OVMax= 3.04D-02

 Cycle   4  Pass 1  IDiag  1:
 E= -282.936601154397     Delta-E=       -0.008745172614 Rises=F Damp=F
 DIIS: error= 2.03D-03 at cycle   4 NSaved=   4.
 NSaved= 4 IEnMin= 4 EnMin= -282.936601154397     IErMin= 4 ErrMin= 2.03D-03
 ErrMax= 2.03D-03  0.00D+00 EMaxC= 1.00D-01 BMatC= 5.38D-04 BMatP= 1.43D-02
 IDIUse=3 WtCom= 9.80D-01 WtEn= 2.03D-02
 Coeff-Com: -0.108D-01 0.546D-01 0.252D+00 0.704D+00
 Coeff-En:   0.000D+00 0.000D+00 0.000D+00 0.100D+01
 Coeff:     -0.105D-01 0.535D-01 0.247D+00 0.710D+00
 Gap=     0.515 Goal=   None    Shift=    0.000
 RMSDP=5.70D-05 MaxDP=2.77D-03 DE=-8.75D-03 OVMax= 4.88D-03

 Cycle   5  Pass 1  IDiag  1:
 E= -282.937024565263     Delta-E=       -0.000423410867 Rises=F Damp=F
 DIIS: error= 6.84D-04 at cycle   5 NSaved=   5.
 NSaved= 5 IEnMin= 5 EnMin= -282.937024565263     IErMin= 5 ErrMin= 6.84D-04
 ErrMax= 6.84D-04  0.00D+00 EMaxC= 1.00D-01 BMatC= 2.80D-05 BMatP= 5.38D-04
 IDIUse=3 WtCom= 9.93D-01 WtEn= 6.84D-03
 Coeff-Com:  0.189D-02-0.227D-01-0.687D-01 0.306D-01 0.106D+01
 Coeff-En:   0.000D+00 0.000D+00 0.000D+00 0.000D+00 0.100D+01
 Coeff:      0.188D-02-0.225D-01-0.683D-01 0.304D-01 0.106D+01
 Gap=     0.516 Goal=   None    Shift=    0.000
 RMSDP=2.86D-05 MaxDP=1.31D-03 DE=-4.23D-04 OVMax= 3.71D-03

 Cycle   6  Pass 1  IDiag  1:
 E= -282.937075725105     Delta-E=       -0.000051159842 Rises=F Damp=F
 DIIS: error= 1.91D-04 at cycle   6 NSaved=   6.
 NSaved= 6 IEnMin= 6 EnMin= -282.937075725105     IErMin= 6 ErrMin= 1.91D-04
 ErrMax= 1.91D-04  0.00D+00 EMaxC= 1.00D-01 BMatC= 4.45D-06 BMatP= 2.80D-05
 IDIUse=3 WtCom= 9.98D-01 WtEn= 1.91D-03
 Coeff-Com:  0.148D-02-0.108D-01-0.406D-01-0.803D-01 0.208D+00 0.922D+00
 Coeff-En:   0.000D+00 0.000D+00 0.000D+00 0.000D+00 0.000D+00 0.100D+01
 Coeff:      0.148D-02-0.108D-01-0.405D-01-0.801D-01 0.208D+00 0.922D+00
 Gap=     0.516 Goal=   None    Shift=    0.000
 RMSDP=1.34D-05 MaxDP=7.76D-04 DE=-5.12D-05 OVMax= 1.07D-03

 Cycle   7  Pass 1  IDiag  1:
 E= -282.937083597855     Delta-E=       -0.000007872750 Rises=F Damp=F
 DIIS: error= 7.88D-05 at cycle   7 NSaved=   7.
 NSaved= 7 IEnMin= 7 EnMin= -282.937083597855     IErMin= 7 ErrMin= 7.88D-05
 ErrMax= 7.88D-05  0.00D+00 EMaxC= 1.00D-01 BMatC= 5.17D-07 BMatP= 4.45D-06
 IDIUse=1 WtCom= 1.00D+00 WtEn= 0.00D+00
 Coeff-Com: -0.153D-03 0.224D-02 0.826D-02-0.125D-01-0.112D+00 0.340D-02
 Coeff-Com:  0.111D+01
 Coeff:     -0.153D-03 0.224D-02 0.826D-02-0.125D-01-0.112D+00 0.340D-02
 Coeff:      0.111D+01
 Gap=     0.516 Goal=   None    Shift=    0.000
 RMSDP=4.86D-06 MaxDP=1.58D-04 DE=-7.87D-06 OVMax= 7.05D-04

 Cycle   8  Pass 1  IDiag  1:
 E= -282.937084950572     Delta-E=       -0.000001352717 Rises=F Damp=F
 DIIS: error= 2.48D-05 at cycle   8 NSaved=   8.
 NSaved= 8 IEnMin= 8 EnMin= -282.937084950572     IErMin= 8 ErrMin= 2.48D-05
 ErrMax= 2.48D-05  0.00D+00 EMaxC= 1.00D-01 BMatC= 7.55D-08 BMatP= 5.17D-07
 IDIUse=1 WtCom= 1.00D+00 WtEn= 0.00D+00
 Coeff-Com: -0.188D-03 0.140D-02 0.530D-02 0.696D-02-0.181D-01-0.116D+00
 Coeff-Com: -0.679D-01 0.119D+01
 Coeff:     -0.188D-03 0.140D-02 0.530D-02 0.696D-02-0.181D-01-0.116D+00
 Coeff:     -0.679D-01 0.119D+01
 Gap=     0.516 Goal=   None    Shift=    0.000
 RMSDP=1.84D-06 MaxDP=6.21D-05 DE=-1.35D-06 OVMax= 2.95D-04

 Cycle   9  Pass 1  IDiag  1:
 E= -282.937085154894     Delta-E=       -0.000000204322 Rises=F Damp=F
 DIIS: error= 8.32D-06 at cycle   9 NSaved=   9.
 NSaved= 9 IEnMin= 9 EnMin= -282.937085154894     IErMin= 9 ErrMin= 8.32D-06
 ErrMax= 8.32D-06  0.00D+00 EMaxC= 1.00D-01 BMatC= 1.00D-08 BMatP= 7.55D-08
 IDIUse=1 WtCom= 1.00D+00 WtEn= 0.00D+00
 Coeff-Com: -0.146D-04-0.338D-04-0.874D-04 0.206D-02 0.139D-01-0.206D-01
 Coeff-Com: -0.157D+00 0.190D+00 0.972D+00
 Coeff:     -0.146D-04-0.338D-04-0.874D-04 0.206D-02 0.139D-01-0.206D-01
 Coeff:     -0.157D+00 0.190D+00 0.972D+00
 Gap=     0.516 Goal=   None    Shift=    0.000
 RMSDP=5.33D-07 MaxDP=1.95D-05 DE=-2.04D-07 OVMax= 9.10D-05

 Cycle  10  Pass 1  IDiag  1:
 E= -282.937085176625     Delta-E=       -0.000000021731 Rises=F Damp=F
 DIIS: error= 2.73D-06 at cycle  10 NSaved=  10.
 NSaved=10 IEnMin=10 EnMin= -282.937085176625     IErMin=10 ErrMin= 2.73D-06
 ErrMax= 2.73D-06  0.00D+00 EMaxC= 1.00D-01 BMatC= 1.12D-09 BMatP= 1.00D-08
 IDIUse=1 WtCom= 1.00D+00 WtEn= 0.00D+00
 Coeff-Com:  0.240D-04-0.192D-03-0.695D-03-0.117D-02 0.383D-02 0.135D-01
 Coeff-Com:  0.468D-02-0.157D+00 0.486D-01 0.109D+01
 Coeff:      0.240D-04-0.192D-03-0.695D-03-0.117D-02 0.383D-02 0.135D-01
 Coeff:      0.468D-02-0.157D+00 0.486D-01 0.109D+01
 Gap=     0.516 Goal=   None    Shift=    0.000
 RMSDP=2.05D-07 MaxDP=7.59D-06 DE=-2.17D-08 OVMax= 2.71D-05

 Cycle  11  Pass 1  IDiag  1:
 E= -282.937085179116     Delta-E=       -0.000000002491 Rises=F Damp=F
 DIIS: error= 5.97D-07 at cycle  11 NSaved=  11.
 NSaved=11 IEnMin=11 EnMin= -282.937085179116     IErMin=11 ErrMin= 5.97D-07
 ErrMax= 5.97D-07  0.00D+00 EMaxC= 1.00D-01 BMatC= 7.86D-11 BMatP= 1.12D-09
 IDIUse=1 WtCom= 1.00D+00 WtEn= 0.00D+00
 Coeff-Com:  0.924D-06 0.197D-05 0.340D-04-0.174D-03-0.116D-02 0.725D-03
 Coeff-Com:  0.134D-01-0.699D-02-0.912D-01-0.728D-01 0.116D+01
 Coeff:      0.924D-06 0.197D-05 0.340D-04-0.174D-03-0.116D-02 0.725D-03
 Coeff:      0.134D-01-0.699D-02-0.912D-01-0.728D-01 0.116D+01
 Gap=     0.516 Goal=   None    Shift=    0.000
 RMSDP=6.55D-08 MaxDP=2.75D-06 DE=-2.49D-09 OVMax= 6.60D-06

 Cycle  12  Pass 1  IDiag  1:
 E= -282.937085179293     Delta-E=       -0.000000000178 Rises=F Damp=F
 DIIS: error= 1.82D-07 at cycle  12 NSaved=  12.
 NSaved=12 IEnMin=12 EnMin= -282.937085179293     IErMin=12 ErrMin= 1.82D-07
 ErrMax= 1.82D-07  0.00D+00 EMaxC= 1.00D-01 BMatC= 4.69D-12 BMatP= 7.86D-11
 IDIUse=1 WtCom= 1.00D+00 WtEn= 0.00D+00
 Coeff-Com: -0.161D-05 0.128D-04 0.493D-04 0.733D-04-0.213D-03-0.948D-03
 Coeff-Com: -0.103D-02 0.126D-01-0.169D-02-0.777D-01-0.279D-01 0.110D+01
 Coeff:     -0.161D-05 0.128D-04 0.493D-04 0.733D-04-0.213D-03-0.948D-03
 Coeff:     -0.103D-02 0.126D-01-0.169D-02-0.777D-01-0.279D-01 0.110D+01
 Gap=     0.516 Goal=   None    Shift=    0.000
 RMSDP=1.36D-08 MaxDP=6.18D-07 DE=-1.78D-10 OVMax= 1.25D-06

 Cycle  13  Pass 1  IDiag  1:
 E= -282.937085179309     Delta-E=       -0.000000000016 Rises=F Damp=F
 DIIS: error= 5.04D-08 at cycle  13 NSaved=  13.
 NSaved=13 IEnMin=13 EnMin= -282.937085179309     IErMin=13 ErrMin= 5.04D-08
 ErrMax= 5.04D-08  0.00D+00 EMaxC= 1.00D-01 BMatC= 4.08D-13 BMatP= 4.69D-12
 IDIUse=1 WtCom= 1.00D+00 WtEn= 0.00D+00
 Coeff-Com: -0.124D-07-0.602D-06-0.429D-05 0.989D-05 0.118D-03-0.207D-04
 Coeff-Com: -0.132D-02 0.748D-03 0.792D-02 0.522D-02-0.100D+00 0.299D-01
 Coeff-Com:  0.106D+01
 Coeff:     -0.124D-07-0.602D-06-0.429D-05 0.989D-05 0.118D-03-0.207D-04
 Coeff:     -0.132D-02 0.748D-03 0.792D-02 0.522D-02-0.100D+00 0.299D-01
 Coeff:      0.106D+01
 Gap=     0.516 Goal=   None    Shift=    0.000
 RMSDP=3.64D-09 MaxDP=1.57D-07 DE=-1.61D-11 OVMax= 3.55D-07

 SCF Done:  E(RHF) =  -282.937085179     A.U. after   13 cycles
            NFock= 13  Conv=0.36D-08     -V/T= 2.0010
 KE= 2.826629483783D+02 PE=-1.026484146798D+03 EE= 2.808099882536D+02
 Leave Link  502 at Mon Dec 26 19:47:35 2016, MaxMem= 13421772800 cpu:       136.6
 (Enter /public/home/users/shu004/g09/l801.exe)
 Windowed orbitals will be sorted by symmetry type.
 ExpMin= 1.03D-01 ExpMax= 1.53D+04 ExpMxC= 5.22D+02 IAcc=3 IRadAn=         5 AccDes= 0.00D+00
 HarFok:  IExCor=  205 AccDes= 0.00D+00 IRadAn=         5 IDoV=-2 UseB2=F ITyADJ=14
 ICtDFT= 12500011 ScaDFX=  1.000000  1.000000  1.000000  1.000000
 DSYEVD-2 returned Info=          87 IAlg= 4 N=    43 NDim=    43 NE2=   312128783 trying  DSYEV.
 Largest valence mixing into a core orbital is  2.10D-04
 Largest core mixing into a valence orbital is  3.02D-05
 Range of M.O.s used for correlation:     6   285
 NBasis=   285 NAE=    20 NBE=    20 NFC=     5 NFV=     0
 NROrb=    280 NOA=    15 NOB=    15 NVA=   265 NVB=   265

 **** Warning!!: The largest alpha MO coefficient is  0.10399210D+02

 Leave Link  801 at Mon Dec 26 19:47:37 2016, MaxMem= 13421772800 cpu:         7.6
 (Enter /public/home/users/shu004/g09/l804.exe)
 Closed-shell transformation, MDV= 13421772800 ITran=4 ISComp=2.
 Semi-Direct transformation.
 ModeAB=           4 MOrb=            15 LenV=   13419721754
 LASXX=     80153831 LTotXX=    80153831 LenRXX=   161235963
 LTotAB=    81082132 MaxLAS=   168373800 LenRXY=           0
 NonZer=   241389794 LenScr=   363504640 LnRSAI=   168373800
 LnScr1=   253551616 LExtra=           0 Total=    946666019
 MaxDsk=          -1 SrtSym=           T ITran=            4
 DoSDTr:  NPSUse= 12
 JobTyp=0 Pass  1:  I=   1 to  15.
 (rs|ai) integrals will be sorted in core.
 Complete sort for first half transformation.
 First half transformation complete.
 Begin second half transformation for I=  10.
 Complete sort for second half transformation.
 Second half transformation complete.
 Spin components of T(2) and E(2):
     alpha-alpha T2 =       0.3560195940D-01 E2=     -0.1287186198D+00
     alpha-beta  T2 =       0.1976946644D+00 E2=     -0.7648111057D+00
     beta-beta   T2 =       0.3560195940D-01 E2=     -0.1287186198D+00
 ANorm=    0.1126453986D+01
 E2 =    -0.1022248345D+01 EUMP2 =    -0.28395933352461D+03
 Leave Link  804 at Mon Dec 26 19:48:02 2016, MaxMem= 13421772800 cpu:       294.9
 (Enter /public/home/users/shu004/g09/l913.exe)
 CIDS:  MDV= 13421772800.
 Frozen-core window:  NFC=   5 NFV=   0.
 IFCWin=0 IBDFC=1 NFBD=     0     0 NFCmp=     0     0 NFFFC=     0     0
 Using DD3R+UMP44R for 1st iteration, S=T.
 Using DD4RQ for 2nd and later iterations.
 Keep R2 and R3 ints in memory in symmetry-blocked form, NReq=1254663470.
 FoFCou: FMM=F IPFlag=           0 FMFlag=           0 FMFlg1=           0
         NFxFlg=           0 DoJE=F BraDBF=F KetDBF=F FulRan=T
         wScrn=  0.000000 ICntrl=     600 IOpCl=  0 I1Cent=           0 NGrid=           0
         NMat0=    1 NMatS0=  40755 NMatT0=    0 NMatD0=    1 NMtDS0=    0 NMtDT0=    0
 Petite list used in FoFCou.
 CCSD(T)
 =======
 Iterations=  50 Convergence= 0.100D-06
 Iteration Nr.   1
 **********************
 DD1Dir will call FoFMem   1 times, MxPair=       240
 NAB=   120 NAA=     0 NBB=     0.
 MP4(R+Q)=  0.22293778D-01
 Maximum subspace dimension=  5
 Norm of the A-vectors is  1.4120641D+00 conv= 1.00D-05.
 RLE energy=       -1.0094356952
 E3=       -0.98813852D-02        EUMP3=      -0.28396921491D+03
 E4(DQ)=    0.18188746D-02        UMP4(DQ)=   -0.28396739604D+03
 E4(SDQ)=  -0.96712640D-02        UMP4(SDQ)=  -0.28397888617D+03
 VARIATIONAL ENERGIES WITH THE FIRST-ORDER WAVEFUNCTION:
 DE(Corr)=  -1.0092734     E(Corr)=     -283.94635855    
 NORM(A)=   0.11263153D+01
 Iteration Nr.   2
 **********************
 DD1Dir will call FoFMem   1 times, MxPair=       240
 NAB=   120 NAA=     0 NBB=     0.
 Norm of the A-vectors is  5.2270203D-01 conv= 1.00D-05.
 RLE energy=       -1.0369982892
 DE(Corr)=  -1.0366956     E(CORR)=     -283.97378081     Delta=-2.74D-02
 NORM(A)=   0.11355631D+01
 Iteration Nr.   3
 **********************
 DD1Dir will call FoFMem   1 times, MxPair=       240
 NAB=   120 NAA=     0 NBB=     0.
 Norm of the A-vectors is  1.4148985D-01 conv= 1.00D-05.
 RLE energy=       -1.0384983875
 DE(Corr)=  -1.0361702     E(CORR)=     -283.97325537     Delta= 5.25D-04
 NORM(A)=   0.11380620D+01
 Iteration Nr.   4
 **********************
 DD1Dir will call FoFMem   1 times, MxPair=       240
 NAB=   120 NAA=     0 NBB=     0.
 Norm of the A-vectors is  5.8955138D-02 conv= 1.00D-05.
 RLE energy=       -1.0386641955
 DE(Corr)=  -1.0384807     E(CORR)=     -283.97556591     Delta=-2.31D-03
 NORM(A)=   0.11388210D+01
 Iteration Nr.   5
 **********************
 DD1Dir will call FoFMem   1 times, MxPair=       240
 NAB=   120 NAA=     0 NBB=     0.
 Norm of the A-vectors is  1.4002403D-02 conv= 1.00D-05.
 RLE energy=       -1.0387750936
 DE(Corr)=  -1.0387316     E(CORR)=     -283.97581678     Delta=-2.51D-04
 NORM(A)=   0.11390637D+01
 Iteration Nr.   6
 **********************
 DD1Dir will call FoFMem   1 times, MxPair=       240
 NAB=   120 NAA=     0 NBB=     0.
 Norm of the A-vectors is  7.0956760D-03 conv= 1.00D-05.
 RLE energy=       -1.0387689970
 DE(Corr)=  -1.0387542     E(CORR)=     -283.97583937     Delta=-2.26D-05
 NORM(A)=   0.11391000D+01
 Iteration Nr.   7
 **********************
 DD1Dir will call FoFMem   1 times, MxPair=       240
 NAB=   120 NAA=     0 NBB=     0.
 Norm of the A-vectors is  2.7034178D-03 conv= 1.00D-05.
 RLE energy=       -1.0387407559
 DE(Corr)=  -1.0387554     E(CORR)=     -283.97584061     Delta=-1.24D-06
 NORM(A)=   0.11391004D+01
 Iteration Nr.   8
 **********************
 DD1Dir will call FoFMem   1 times, MxPair=       240
 NAB=   120 NAA=     0 NBB=     0.
 Norm of the A-vectors is  9.3882016D-04 conv= 1.00D-05.
 RLE energy=       -1.0387540700
 DE(Corr)=  -1.0387550     E(CORR)=     -283.97584021     Delta= 4.00D-07
 NORM(A)=   0.11391054D+01
 Iteration Nr.   9
 **********************
 DD1Dir will call FoFMem   1 times, MxPair=       240
 NAB=   120 NAA=     0 NBB=     0.
 Norm of the A-vectors is  3.4921861D-04 conv= 1.00D-05.
 RLE energy=       -1.0387528897
 DE(Corr)=  -1.0387532     E(CORR)=     -283.97583836     Delta= 1.85D-06
 NORM(A)=   0.11391056D+01
 Iteration Nr.  10
 **********************
 DD1Dir will call FoFMem   1 times, MxPair=       240
 NAB=   120 NAA=     0 NBB=     0.
 Norm of the A-vectors is  1.5220489D-04 conv= 1.00D-05.
 RLE energy=       -1.0387540192
 DE(Corr)=  -1.0387542     E(CORR)=     -283.97583936     Delta=-1.00D-06
 NORM(A)=   0.11391061D+01
 Iteration Nr.  11
 **********************
 DD1Dir will call FoFMem   1 times, MxPair=       240
 NAB=   120 NAA=     0 NBB=     0.
 Norm of the A-vectors is  6.0265178D-05 conv= 1.00D-05.
 RLE energy=       -1.0387543744
 DE(Corr)=  -1.0387542     E(CORR)=     -283.97583939     Delta=-3.05D-08
 NORM(A)=   0.11391065D+01
 Iteration Nr.  12
 **********************
 DD1Dir will call FoFMem   1 times, MxPair=       240
 NAB=   120 NAA=     0 NBB=     0.
 Norm of the A-vectors is  2.9340598D-05 conv= 1.00D-05.
 RLE energy=       -1.0387545157
 DE(Corr)=  -1.0387545     E(CORR)=     -283.97583964     Delta=-2.48D-07
 NORM(A)=   0.11391066D+01
 Iteration Nr.  13
 **********************
 DD1Dir will call FoFMem   1 times, MxPair=       240
 NAB=   120 NAA=     0 NBB=     0.
 Norm of the A-vectors is  1.1704393D-05 conv= 1.00D-05.
 RLE energy=       -1.0387545289
 DE(Corr)=  -1.0387545     E(CORR)=     -283.97583968     Delta=-3.83D-08
 NORM(A)=   0.11391067D+01
 Iteration Nr.  14
 **********************
 DD1Dir will call FoFMem   1 times, MxPair=       240
 NAB=   120 NAA=     0 NBB=     0.
 Norm of the A-vectors is  5.2110490D-06 conv= 1.00D-05.
 RLE energy=       -1.0387545457
 DE(Corr)=  -1.0387545     E(CORR)=     -283.97583972     Delta=-3.94D-08
 NORM(A)=   0.11391067D+01
 CI/CC converged in   14 iterations to DelEn=-3.94D-08 Conv= 1.00D-07 ErrA1= 5.21D-06 Conv= 1.00D-05
 Largest amplitude= 3.20D-02
 IPart=  6 IA=   15   10.31% done.
 IPart=  5 IA=   29   20.05% done.
 IPart=  7 IA=   45   30.50% done.
 IPart=  8 IA=   61   40.22% done.
 IPart=  8 IA=   79   50.28% done.
 IPart=  9 IA=   99   60.37% done.
 IPart=  4 IA=  121   70.15% done.
 IPart=  4 IA=  148   80.27% done.
 IPart=  4 IA=  182   90.03% done.
 Time for triples=    16978.40 seconds.
 T4(CCSD)= -0.45744518D-01
 T5(CCSD)=  0.20811277D-02
 CCSD(T)= -0.28401950311D+03
 Discarding MO integrals.
 Leave Link  913 at Mon Dec 26 20:21:13 2016, MaxMem= 13421772800 cpu:     23815.1
 (Enter /public/home/users/shu004/g09/l601.exe)
 Copying SCF densities to generalized density rwf, IOpCl= 0 IROHF=0.

 **********************************************************************

            Population analysis using the SCF density.

 **********************************************************************

 Orbital symmetries:
       Occupied  (A') (A') (A') (A') (A') (A') (A') (A') (A') (A')
                 (A') (A") (A') (A") (A') (A') (A") (A') (A") (A')
       Virtual   (A') (A') (A") (A") (A') (A") (A') (A') (A') (A')
                 (A") (A') (A") (A') (A') (A') (A") (A') (A") (A')
                 (A') (A') (A") (A') (A') (A") (A') (A') (A") (A')
                 (A") (A') (A') (A') (A") (A") (A") (A') (A') (A')
                 (A") (A") (A') (A") (A') (A") (A') (A') (A") (A')
                 (A') (A') (A") (A') (A') (A") (A') (A') (A') (A")
                 (A') (A') (A") (A') (A") (A') (A") (A') (A") (A')
                 (A') (A') (A") (A") (A') (A') (A") (A') (A') (A')
                 (A") (A') (A') (A') (A') (A") (A') (A") (A") (A")
                 (A') (A') (A') (A") (A') (A") (A') (A') (A") (A")
                 (A') (A') (A") (A') (A") (A") (A') (A") (A') (A")
                 (A') (A") (A") (A') (A') (A") (A") (A') (A') (A')
                 (A') (A') (A") (A") (A') (A") (A') (A') (A") (A")
                 (A') (A') (A') (A') (A") (A") (A') (A") (A') (A")
                 (A') (A") (A') (A") (A') (A') (A') (A") (A') (A')
                 (A') (A") (A') (A") (A') (A') (A') (A") (A') (A")
                 (A') (A') (A") (A') (A') (A") (A') (A') (A') (A')
                 (A") (A") (A') (A") (A') (A') (A") (A') (A") (A')
                 (A") (A") (A") (A') (A") (A') (A") (A") (A') (A")
                 (A') (A') (A") (A') (A') (A') (A') (A') (A') (A')
                 (A") (A') (A') (A') (A") (A') (A') (A') (A') (A")
                 (A') (A') (A") (A") (A') (A') (A') (A') (A') (A')
                 (A") (A') (A') (A') (A") (A") (A") (A') (A") (A')
                 (A') (A') (A') (A") (A') (A") (A") (A') (A") (A')
                 (A") (A') (A') (A') (A') (A") (A') (A') (A') (A")
                 (A') (A') (A') (A') (A") (A') (A') (A") (A") (A')
                 (A') (A') (A') (A') (A')
 The electronic state is 1-A'.
 Alpha  occ. eigenvalues --  -20.60962 -20.53510 -15.57443 -11.37714 -11.28751
 Alpha  occ. eigenvalues --   -1.46148  -1.36266  -1.21721  -0.97651  -0.82754
 Alpha  occ. eigenvalues --   -0.74137  -0.72335  -0.66821  -0.63237  -0.61999
 Alpha  occ. eigenvalues --   -0.56699  -0.55756  -0.48305  -0.47250  -0.40603
 Alpha virt. eigenvalues --    0.11043   0.16000   0.16091   0.17507   0.19855
 Alpha virt. eigenvalues --    0.24590   0.30920   0.33257   0.36753   0.43691
 Alpha virt. eigenvalues --    0.43999   0.45013   0.46365   0.47553   0.51767
 Alpha virt. eigenvalues --    0.54703   0.54736   0.57551   0.59485   0.61680
 Alpha virt. eigenvalues --    0.63051   0.66697   0.68921   0.70204   0.72980
 Alpha virt. eigenvalues --    0.73848   0.77190   0.81549   0.81869   0.84009
 Alpha virt. eigenvalues --    0.85035   0.88781   0.93669   0.94817   0.97844
 Alpha virt. eigenvalues --    1.00324   1.04733   1.05452   1.09736   1.16202
 Alpha virt. eigenvalues --    1.16741   1.19553   1.24165   1.27190   1.29818
 Alpha virt. eigenvalues --    1.35336   1.35344   1.36389   1.37965   1.39006
 Alpha virt. eigenvalues --    1.42178   1.44120   1.49761   1.50229   1.53963
 Alpha virt. eigenvalues --    1.58567   1.61881   1.63787   1.74134   1.75596
 Alpha virt. eigenvalues --    1.76431   1.86185   1.86670   1.86908   1.96791
 Alpha virt. eigenvalues --    1.99551   2.04310   2.07382   2.25377   2.26071
 Alpha virt. eigenvalues --    2.30222   2.32792   2.37293   2.38578   2.43674
 Alpha virt. eigenvalues --    2.49427   2.61608   2.63111   2.71767   2.74564
 Alpha virt. eigenvalues --    2.77015   2.83291   2.88212   2.91576   2.96543
 Alpha virt. eigenvalues --    2.96784   3.07908   3.08180   3.17329   3.17651
 Alpha virt. eigenvalues --    3.18340   3.21934   3.24085   3.28156   3.34407
 Alpha virt. eigenvalues --    3.36386   3.36441   3.39248   3.40258   3.44399
 Alpha virt. eigenvalues --    3.44595   3.47775   3.50507   3.53521   3.54539
 Alpha virt. eigenvalues --    3.56898   3.60240   3.64598   3.68139   3.69702
 Alpha virt. eigenvalues --    3.71107   3.73583   3.80415   3.80648   3.83095
 Alpha virt. eigenvalues --    3.84249   3.86313   3.91182   3.98227   3.99924
 Alpha virt. eigenvalues --    4.04097   4.08125   4.08182   4.11836   4.13044
 Alpha virt. eigenvalues --    4.15626   4.24883   4.25787   4.26466   4.27403
 Alpha virt. eigenvalues --    4.30919   4.35012   4.39806   4.43330   4.43347
 Alpha virt. eigenvalues --    4.46792   4.49247   4.53037   4.53616   4.55402
 Alpha virt. eigenvalues --    4.62662   4.66247   4.67299   4.67918   4.70887
 Alpha virt. eigenvalues --    4.78461   4.89240   4.97706   4.99527   5.09050
 Alpha virt. eigenvalues --    5.14254   5.14317   5.20083   5.25701   5.28613
 Alpha virt. eigenvalues --    5.38557   5.42042   5.42154   5.54107   5.56246
 Alpha virt. eigenvalues --    5.56794   5.62074   5.63859   5.69027   5.75273
 Alpha virt. eigenvalues --    5.78532   5.87432   5.90650   6.00543   6.02905
 Alpha virt. eigenvalues --    6.07137   6.07313   6.14829   6.16305   6.22765
 Alpha virt. eigenvalues --    6.30364   6.33879   6.36836   6.41867   6.62700
 Alpha virt. eigenvalues --    6.64377   6.71227   6.86060   6.87942   6.96978
 Alpha virt. eigenvalues --    7.02087   7.07952   7.18949   7.22784   7.27099
 Alpha virt. eigenvalues --    7.27421   7.35241   7.35490   7.43023   7.53600
 Alpha virt. eigenvalues --    7.60317   7.69529   7.93159   7.99468   8.41788
 Alpha virt. eigenvalues --   15.34404  16.11185  16.19454  16.38665  16.47214
 Alpha virt. eigenvalues --   16.58728  16.83360  17.13086  20.93816  21.69405
 Alpha virt. eigenvalues --   21.99641  22.77551  26.14619  26.25545  26.45301
 Alpha virt. eigenvalues --   26.70596  27.19221  27.30641  29.02780  29.49181
 Alpha virt. eigenvalues --   39.24616  39.24848  39.30634  39.47949  39.58248
 Alpha virt. eigenvalues --   41.38878  41.44402  41.46168  41.52472  41.53511
 Alpha virt. eigenvalues --   41.64952  41.66790  41.71040  41.72928  41.72933
 Alpha virt. eigenvalues --   43.86542  43.88155  43.90870  43.93888  43.95849
 Alpha virt. eigenvalues --   43.99493  44.02416  44.08323  44.17645  44.18072
 Alpha virt. eigenvalues --   80.98196  81.51982  81.72336  81.76246  81.81308
 Alpha virt. eigenvalues --   81.94801  85.63105  86.56689 109.07827 109.61929
 Alpha virt. eigenvalues --  109.87580 116.48185 138.29947 138.39950 138.53743
 Alpha virt. eigenvalues --  138.74710 139.17817 139.27602 149.60761 150.12507
          Condensed to atoms (all electrons):
               1          2          3          4          5          6
     1  C    4.258831   0.383862   0.746369  -0.040900   0.360331  -0.063644
     2  O    0.383862   7.764969  -0.076774   0.328819  -0.088693  -0.002304
     3  O    0.746369  -0.076774   7.813927   0.005576  -0.082941   0.005260
     4  H   -0.040900   0.328819   0.005576   0.466754  -0.009503   0.022168
     5  C    0.360331  -0.088693  -0.082941  -0.009503   4.839577   0.273867
     6  N   -0.063644  -0.002304   0.005260   0.022168   0.273867   6.340339
     7  H   -0.038799   0.002721   0.004886   0.001026   0.407331  -0.026078
     8  H   -0.038799   0.002721   0.004886   0.001026   0.407331  -0.026078
     9  H   -0.001841   0.001103  -0.000077   0.003422  -0.034738   0.411949
    10  H   -0.001841   0.001103  -0.000077   0.003422  -0.034738   0.411949
               7          8          9         10
     1  C   -0.038799  -0.038799  -0.001841  -0.001841
     2  O    0.002721   0.002721   0.001103   0.001103
     3  O    0.004886   0.004886  -0.000077  -0.000077
     4  H    0.001026   0.001026   0.003422   0.003422
     5  C    0.407331   0.407331  -0.034738  -0.034738
     6  N   -0.026078  -0.026078   0.411949   0.411949
     7  H    0.548957  -0.008802  -0.006595   0.006137
     8  H   -0.008802   0.548957   0.006137  -0.006595
     9  H   -0.006595   0.006137   0.537941  -0.042682
    10  H    0.006137  -0.006595  -0.042682   0.537941
 Mulliken charges:
               1
     1  C    0.436431
     2  O   -0.317527
     3  O   -0.421036
     4  H    0.218191
     5  C   -0.037826
     6  N   -0.347429
     7  H    0.109217
     8  H    0.109217
     9  H    0.125381
    10  H    0.125381
 Sum of Mulliken charges =   0.00000
 Mulliken charges with hydrogens summed into heavy atoms:
               1
     1  C    0.436431
     2  O   -0.099336
     3  O   -0.421036
     5  C    0.180608
     6  N   -0.096667
 Electronic spatial extent (au):  <R**2>=            415.6550
 Charge=              0.0000 electrons
 Dipole moment (field-independent basis, Debye):
    X=             -0.9966    Y=             -4.5736    Z=              0.0000  Tot=              4.6809
 Quadrupole moment (field-independent basis, Debye-Ang):
   XX=            -29.5892   YY=            -37.1143   ZZ=            -26.6995
   XY=              3.1587   XZ=              0.0000   YZ=              0.0000
 Traceless Quadrupole moment (field-independent basis, Debye-Ang):
   XX=              1.5451   YY=             -5.9800   ZZ=              4.4349
   XY=              3.1587   XZ=              0.0000   YZ=              0.0000
 Octapole moment (field-independent basis, Debye-Ang**2):
  XXX=             -3.6397  YYY=             -6.8743  ZZZ=              0.0000  XYY=            -12.7357
  XXY=             -5.2022  XXZ=              0.0000  XZZ=             -0.6652  YZZ=             -3.3439
  YYZ=              0.0000  XYZ=              0.0000
 Hexadecapole moment (field-independent basis, Debye-Ang**3):
 XXXX=           -137.9344 YYYY=           -353.9797 ZZZZ=            -32.9149 XXXY=             15.1371
 XXXZ=              0.0000 YYYX=             23.0805 YYYZ=              0.0000 ZZZX=              0.0000
 ZZZY=              0.0000 XXYY=            -81.5102 XXZZ=            -27.7291 YYZZ=            -50.2302
 XXYZ=              0.0000 YYXZ=              0.0000 ZZXY=              4.3685
 N-N= 1.800741249866D+02 E-N=-1.026484144596D+03  KE= 2.826629483783D+02
 Symmetry A'   KE= 2.698442289890D+02
 Symmetry A"   KE= 1.281871938933D+01
 Leave Link  601 at Mon Dec 26 20:21:14 2016, MaxMem= 13421772800 cpu:         8.6
 (Enter /public/home/users/shu004/g09/l9999.exe)
 1\1\GINC-A750\SP\RCCSD(T)-FC\Gen\C2H5N1O2\SHU004\26-Dec-2016\0\\#P CCS
 D(T) gen\\VII_SP\\0,1\C\O,1,1.345735504\O,1,1.198146815,2,121.21259845
 \H,2,0.96472032,1,108.75235786,3,180.,0\C,1,1.527150932,3,122.19981539
 ,2,180.,0\N,5,1.440475779,1,118.81834237,3,180.,0\H,5,1.089222132,1,10
 5.99599442,3,56.3357356,0\H,5,1.089222132,1,105.99599442,3,-56.3357356
 ,0\H,6,1.005658302,5,116.6839121,1,-68.87806909,0\H,6,1.005658302,5,11
 6.6839121,1,68.87806909,0\\Version=ES64L-G09RevD.01\State=1-A'\HF=-282
 .9370852\MP2=-283.9593335\MP3=-283.9692149\MP4D=-283.9896898\MP4DQ=-28
 3.967396\MP4SDQ=-283.9788862\CCSD=-283.9758397\CCSD(T)=-284.0195031\RM
 SD=3.638e-09\PG=CS [SG(C2H1N1O2),X(H4)]\\@


 ON A CLEAR DISK YOU CAN SEEK FOREVER.
 Job cpu time:       0 days  6 hours 44 minutes 52.7 seconds.
 File lengths (MBytes):  RWF=   7258 Int=      0 D2E=      0 Chk=      5 Scr=      1
 Normal termination of Gaussian 09 at Mon Dec 26 20:21:15 2016.
