 Entering Gaussian System, Link 0=g16
 Input=tct_Best_geom_CCSDT_jun_cc-pVTZ.gjf
 Output=tct_Best_geom_CCSDT_jun_cc-pVTZ.log
 Initial command:
 /data2/software/Gaussian/g16_c01-gpu/g16/l1.exe "/home/shuchong/scratch/Gau-5211.inp" -scrdir="/home/shuchong/scratch/"
 Entering Link 1 = /data2/software/Gaussian/g16_c01-gpu/g16/l1.exe PID=      5212.
  
 Copyright (c) 1988-2019, Gaussian, Inc.  All Rights Reserved.
  
 This is part of the Gaussian(R) 16 program.  It is based on
 the Gaussian(R) 09 system (copyright 2009, Gaussian, Inc.),
 the Gaussian(R) 03 system (copyright 2003, Gaussian, Inc.),
 the Gaussian(R) 98 system (copyright 1998, Gaussian, Inc.),
 the Gaussian(R) 94 system (copyright 1995, Gaussian, Inc.),
 the Gaussian 92(TM) system (copyright 1992, Gaussian, Inc.),
 the Gaussian 90(TM) system (copyright 1990, Gaussian, Inc.),
 the Gaussian 88(TM) system (copyright 1988, Gaussian, Inc.),
 the Gaussian 86(TM) system (copyright 1986, Carnegie Mellon
 University), and the Gaussian 82(TM) system (copyright 1983,
 Carnegie Mellon University). Gaussian is a federally registered
 trademark of Gaussian, Inc.
  
 This software contains proprietary and confidential information,
 including trade secrets, belonging to Gaussian, Inc.
  
 This software is provided under written license and may be
 used, copied, transmitted, or stored only in accord with that
 written license.
  
 The following legend is applicable only to US Government
 contracts under FAR:
  
                    RESTRICTED RIGHTS LEGEND
  
 Use, reproduction and disclosure by the US Government is
 subject to restrictions as set forth in subparagraphs (a)
 and (c) of the Commercial Computer Software - Restricted
 Rights clause in FAR 52.227-19.
  
 Gaussian, Inc.
 340 Quinnipiac St., Bldg. 40, Wallingford CT 06492
  
  
 ---------------------------------------------------------------
 Warning -- This program may not be used in any manner that
 competes with the business of Gaussian, Inc. or will provide
 assistance to any competitor of Gaussian, Inc.  The licensee
 of this program is prohibited from giving any competitor of
 Gaussian, Inc. access to this program.  By using this program,
 the user acknowledges that Gaussian, Inc. is engaged in the
 business of creating and licensing software in the field of
 computational chemistry and represents and warrants to the
 licensee that it is not a competitor of Gaussian, Inc. and that
 it will not use this program in any manner prohibited above.
 ---------------------------------------------------------------
  

 Cite this work as:
 Gaussian 16, Revision C.01,
 M. J. Frisch, G. W. Trucks, H. B. Schlegel, G. E. Scuseria, 
 M. A. Robb, J. R. Cheeseman, G. Scalmani, V. Barone, 
 G. A. Petersson, H. Nakatsuji, X. Li, M. Caricato, A. V. Marenich, 
 J. Bloino, B. G. Janesko, R. Gomperts, B. Mennucci, H. P. Hratchian, 
 J. V. Ortiz, A. F. Izmaylov, J. L. Sonnenberg, D. Williams-Young, 
 F. Ding, F. Lipparini, F. Egidi, J. Goings, B. Peng, A. Petrone, 
 T. Henderson, D. Ranasinghe, V. G. Zakrzewski, J. Gao, N. Rega, 
 G. Zheng, W. Liang, M. Hada, M. Ehara, K. Toyota, R. Fukuda, 
 J. Hasegawa, M. Ishida, T. Nakajima, Y. Honda, O. Kitao, H. Nakai, 
 T. Vreven, K. Throssell, J. A. Montgomery, Jr., J. E. Peralta, 
 F. Ogliaro, M. J. Bearpark, J. J. Heyd, E. N. Brothers, K. N. Kudin, 
 V. N. Staroverov, T. A. Keith, R. Kobayashi, J. Normand, 
 K. Raghavachari, A. P. Rendell, J. C. Burant, S. S. Iyengar, 
 J. Tomasi, M. Cossi, J. M. Millam, M. Klene, C. Adamo, R. Cammi, 
 J. W. Ochterski, R. L. Martin, K. Morokuma, O. Farkas, 
 J. B. Foresman, and D. J. Fox, Gaussian, Inc., Wallingford CT, 2019.
 
 ******************************************
 Gaussian 16:  AM64L-G16RevC.01  3-Jul-2019
                16-Jan-2021 
 ******************************************
 %chk=tct_Best_geom_CCSDT_jun_cc-pVTZ.chk
 %nprocshared=16
 Will use up to   16 processors via shared memory.
 %mem=100GB
 -------------------------
 #p #p CCSD(T)/jun-cc-pvtz
 -------------------------
 1/38=1,172=1/1;
 2/12=2,17=6,18=5,40=1/2;
 3/5=16,6=1,7=60,11=9,25=1,30=1/1,2,3;
 4//1;
 5/5=2,38=5/2;
 8/6=4,9=120000,10=1/1,4;
 9/5=7,14=2/13;
 6/7=2,8=2,9=2,10=2/1;
 99/5=1,9=1/99;
 Leave Link    1 at Sat Jan 16 07:55:08 2021, MaxMem= 13421772800 cpu:               2.6 elap:               0.2
 (Enter /data2/software/Gaussian/g16_c01-gpu/g16/l101.exe)
 --------------------------
 start best geom PCCP paper
 --------------------------
 Symbolic Z-matrix:
 Charge =  0 Multiplicity = 1
 C
 O                    1    B1
 O                    1    B2       2    A1
 H                    2    B3       1    A2       3    D1       0
 C                    1    B4       3    A3       2    D2       0
 N                    5    B5       1    A4       3    D3       0
 H                    5    B6       1    A5       3    D4       0
 H                    5    B7       1    A6       3    D5       0
 H                    6    B8       5    A7       1    D6       0
 H                    6    B9       5    A8       1    D7       0
       Variables:
  B1                    1.34824                  
  B2                    1.20339                  
  B3                    0.96562                  
  B4                    1.51736                  
  B5                    1.44458                  
  B6                    1.0899                   
  B7                    1.0899                   
  B8                    1.00975                  
  B9                    1.00975                  
  A1                  122.72896                  
  A2                  106.37597                  
  A3                  123.80161                  
  A4                  118.62999                  
  A5                  105.95621                  
  A6                  105.95621                  
  A7                  111.34671                  
  A8                  111.34671                  
  D1                    0.                       
  D2                  180.                       
  D3                  180.                       
  D4                   56.19793                  
  D5                  -56.19793                  
  D6                   59.71795                  
  D7                  -59.71795                  
 
 ITRead=  0  0  0  0  0  0  0  0  0  0
 MicOpt= -1 -1 -1 -1 -1 -1 -1 -1 -1 -1
 NAtoms=     10 NQM=       10 NQMF=       0 NMMI=      0 NMMIF=      0
                NMic=       0 NMicF=      0.
                    Isotopes and Nuclear Properties:
 (Nuclear quadrupole moments (NQMom) in fm**2, nuclear magnetic moments (NMagM)
  in nuclear magnetons)

  Atom         1           2           3           4           5           6           7           8           9          10
 IAtWgt=          12          16          16           1          12          14           1           1           1           1
 AtmWgt=  12.0000000  15.9949146  15.9949146   1.0078250  12.0000000  14.0030740   1.0078250   1.0078250   1.0078250   1.0078250
 NucSpn=           0           0           0           1           0           2           1           1           1           1
 AtZEff=  -0.0000000  -0.0000000  -0.0000000  -0.0000000  -0.0000000  -0.0000000  -0.0000000  -0.0000000  -0.0000000  -0.0000000
 NQMom=    0.0000000   0.0000000   0.0000000   0.0000000   0.0000000   2.0440000   0.0000000   0.0000000   0.0000000   0.0000000
 NMagM=    0.0000000   0.0000000   0.0000000   2.7928460   0.0000000   0.4037610   2.7928460   2.7928460   2.7928460   2.7928460
 AtZNuc=   6.0000000   8.0000000   8.0000000   1.0000000   6.0000000   7.0000000   1.0000000   1.0000000   1.0000000   1.0000000
 Leave Link  101 at Sat Jan 16 07:55:09 2021, MaxMem= 13421772800 cpu:               4.9 elap:               0.4
 (Enter /data2/software/Gaussian/g16_c01-gpu/g16/l202.exe)
                          Input orientation:                          
 ---------------------------------------------------------------------
 Center     Atomic      Atomic             Coordinates (Angstroms)
 Number     Number       Type             X           Y           Z
 ---------------------------------------------------------------------
      1          6           0        0.000000    0.000000    0.000000
      2          8           0        0.000000    0.000000    1.348240
      3          8           0        1.012337    0.000000   -0.650632
      4          1           0        0.926448    0.000000    1.620486
      5          6           0       -1.391833    0.000000   -0.604303
      6          7           0       -2.531719    0.000000    0.283092
      7          1           0       -1.434486   -0.870775   -1.258379
      8          1           0       -1.434486    0.870775   -1.258379
      9          1           0       -2.530429    0.812151    0.883095
     10          1           0       -2.530429   -0.812151    0.883095
 ---------------------------------------------------------------------
                    Distance matrix (angstroms):
                    1          2          3          4          5
     1  C    0.000000
     2  O    1.348240   0.000000
     3  O    1.203390   2.240606   0.000000
     4  H    1.866623   0.965621   2.272741   0.000000
     5  C    1.517360   2.397837   2.404616   3.213116   0.000000
     6  N    2.547497   2.746660   3.664993   3.707768   1.444580
     7  H    2.097502   3.100074   2.667311   3.823627   1.089900
     8  H    2.097502   3.100074   2.667311   3.823627   1.089900
     9  H    2.800449   2.697966   3.945009   3.626752   2.041653
    10  H    2.800449   2.697966   3.945009   3.626752   2.041653
                    6          7          8          9         10
     6  N    0.000000
     7  H    2.082859   0.000000
     8  H    2.082859   1.741549   0.000000
     9  H    1.009750   2.935854   2.406333   0.000000
    10  H    1.009750   2.406333   2.935854   1.624303   0.000000
 Stoichiometry    C2H5NO2
 Framework group  CS[SG(C2HNO2),X(H4)]
 Deg. of freedom    15
 Full point group                 CS      NOp   2
 Largest Abelian subgroup         CS      NOp   2
 Largest concise Abelian subgroup CS      NOp   2
                         Standard orientation:                         
 ---------------------------------------------------------------------
 Center     Atomic      Atomic             Coordinates (Angstroms)
 Number     Number       Type             X           Y           Z
 ---------------------------------------------------------------------
      1          6           0       -0.000000    0.635900    0.000000
      2          8           0       -1.323949    0.381124    0.000000
      3          8           0        0.447609    1.752947    0.000000
      4          1           0       -1.766360    1.239435    0.000000
      5          6           0        0.856429   -0.616662   -0.000000
      6          7           0        0.200424   -1.903701   -0.000000
      7          1           0        1.506780   -0.534947    0.870775
      8          1           0        1.506780   -0.534947   -0.870775
      9          1           0       -0.389012   -2.015816   -0.812151
     10          1           0       -0.389012   -2.015816    0.812151
 ---------------------------------------------------------------------
 Rotational constants (GHZ):          10.0492564           4.0169293           2.9660702
 Leave Link  202 at Sat Jan 16 07:55:09 2021, MaxMem= 13421772800 cpu:               0.7 elap:               0.1
 (Enter /data2/software/Gaussian/g16_c01-gpu/g16/l301.exe)
 Standard basis: Jun-CC-pVTZ (5D, 7F)
 Ernie: Thresh=  0.10000D-02 Tol=  0.10000D-05 Strict=F.
 Ernie:  15 primitive shells out of 185 were deleted.
 There are   196 symmetry adapted cartesian basis functions of A'  symmetry.
 There are   104 symmetry adapted cartesian basis functions of A"  symmetry.
 There are   168 symmetry adapted basis functions of A'  symmetry.
 There are    97 symmetry adapted basis functions of A"  symmetry.
   265 basis functions,   395 primitive gaussians,   300 cartesian basis functions
    20 alpha electrons       20 beta electrons
       nuclear repulsion energy       180.0072559301 Hartrees.
 IExCor=    0 DFT=F Ex=HF Corr=None ExCW=0 ScaHFX=  1.000000
 ScaDFX=  1.000000  1.000000  1.000000  1.000000 ScalE2=  1.000000  1.000000
 IRadAn=      5 IRanWt=     -1 IRanGd=            0 ICorTp=0 IEmpDi=  4
 NAtoms=   10 NActive=   10 NUniq=    8 SFac= 1.56D+00 NAtFMM=   60 NAOKFM=F Big=F
 Integral buffers will be    131072 words long.
 Raffenetti 1 integral format.
 Two-electron integral symmetry is turned on.
 Leave Link  301 at Sat Jan 16 07:55:09 2021, MaxMem= 13421772800 cpu:               0.6 elap:               0.1
 (Enter /data2/software/Gaussian/g16_c01-gpu/g16/l302.exe)
 NPDir=0 NMtPBC=     1 NCelOv=     1 NCel=       1 NClECP=     1 NCelD=      1
         NCelK=      1 NCelE2=     1 NClLst=     1 CellRange=     0.0.
 One-electron integrals computed using PRISM.
 One-electron integral symmetry used in STVInt
 NBasis=   265 RedAO= T EigKep=  5.07D-05  NBF=   168    97
 NBsUse=   265 1.00D-06 EigRej= -1.00D+00 NBFU=   168    97
 Leave Link  302 at Sat Jan 16 07:55:10 2021, MaxMem= 13421772800 cpu:               7.3 elap:               0.6
 (Enter /data2/software/Gaussian/g16_c01-gpu/g16/l303.exe)
 DipDrv:  MaxL=1.
 Leave Link  303 at Sat Jan 16 07:55:10 2021, MaxMem= 13421772800 cpu:               0.5 elap:               0.1
 (Enter /data2/software/Gaussian/g16_c01-gpu/g16/l401.exe)
 ExpMin= 3.57D-02 ExpMax= 1.53D+04 ExpMxC= 5.22D+02 IAcc=3 IRadAn=         5 AccDes= 0.00D+00
 Harris functional with IExCor=  205 and IRadAn=       5 diagonalized for initial guess.
 HarFok:  IExCor=  205 AccDes= 0.00D+00 IRadAn=         5 IDoV= 1 UseB2=F ITyADJ=14
 ICtDFT=  3500011 ScaDFX=  1.000000  1.000000  1.000000  1.000000
 FoFCou: FMM=F IPFlag=           0 FMFlag=      100000 FMFlg1=           0
         NFxFlg=           0 DoJE=T BraDBF=F KetDBF=T FulRan=T
         wScrn=  0.000000 ICntrl=       500 IOpCl=  0 I1Cent=   200000004 NGrid=           0
         NMat0=    1 NMatS0=      1 NMatT0=    0 NMatD0=    1 NMtDS0=    0 NMtDT0=    0
 Petite list used in FoFCou.
 Harris En= -283.227334857414    
 JPrj=0 DoOrth=F DoCkMO=F.
 Initial guess orbital symmetries:
       Occupied  (A') (A') (A') (A') (A') (A') (A') (A') (A') (A')
                 (A") (A') (A') (A') (A") (A') (A") (A") (A') (A')
       Virtual   (A") (A') (A') (A') (A") (A') (A') (A") (A') (A")
                 (A') (A') (A') (A') (A") (A') (A') (A") (A") (A')
                 (A') (A') (A') (A") (A') (A") (A') (A') (A") (A')
                 (A') (A") (A') (A') (A') (A') (A') (A") (A") (A')
                 (A') (A') (A") (A") (A') (A') (A") (A') (A') (A')
                 (A") (A') (A') (A') (A") (A') (A") (A') (A") (A')
                 (A") (A') (A") (A') (A") (A') (A') (A') (A") (A')
                 (A') (A") (A") (A') (A") (A') (A") (A') (A') (A")
                 (A') (A") (A') (A') (A') (A") (A') (A") (A") (A')
                 (A") (A') (A") (A') (A') (A') (A') (A') (A') (A")
                 (A') (A') (A') (A') (A") (A') (A") (A') (A') (A")
                 (A") (A') (A') (A") (A") (A') (A') (A") (A') (A')
                 (A') (A") (A') (A') (A") (A') (A') (A") (A') (A')
                 (A") (A') (A') (A") (A") (A') (A') (A") (A") (A")
                 (A') (A') (A") (A') (A") (A') (A") (A") (A') (A')
                 (A") (A') (A") (A") (A') (A') (A") (A') (A") (A")
                 (A') (A') (A') (A") (A') (A') (A") (A') (A") (A")
                 (A') (A') (A') (A') (A") (A") (A') (A") (A') (A')
                 (A") (A') (A') (A") (A") (A') (A') (A') (A") (A')
                 (A') (A") (A') (A') (A") (A') (A") (A') (A') (A")
                 (A') (A') (A") (A") (A') (A') (A') (A') (A") (A")
                 (A') (A') (A") (A') (A') (A') (A") (A") (A') (A")
                 (A') (A") (A') (A") (A') (A") (A') (A") (A') (A")
                 (A') (A") (A") (A') (A') (A') (A") (A') (A') (A')
                 (A') (A') (A') (A') (A')
 The electronic state of the initial guess is 1-A'.
 Leave Link  401 at Sat Jan 16 07:55:11 2021, MaxMem= 13421772800 cpu:              12.3 elap:               0.8
 (Enter /data2/software/Gaussian/g16_c01-gpu/g16/l502.exe)
 Keep R1 ints in memory in symmetry-blocked form, NReq=933528469.
 FoFCou: FMM=F IPFlag=           0 FMFlag=           0 FMFlg1=           0
         NFxFlg=           0 DoJE=F BraDBF=F KetDBF=F FulRan=T
         wScrn=  0.000000 ICntrl=       600 IOpCl=  0 I1Cent=           0 NGrid=           0
         NMat0=    1 NMatS0=  35245 NMatT0=    0 NMatD0=    1 NMtDS0=    0 NMtDT0=    0
 Petite list used in FoFCou.
 Closed shell SCF:
 Using DIIS extrapolation, IDIIS=  1040.
 NGot= 13421772800 LenX= 13109181140 LenY= 13109090699
 Requested convergence on RMS density matrix=1.00D-08 within 128 cycles.
 Requested convergence on MAX density matrix=1.00D-06.
 Requested convergence on             energy=1.00D-06.
 No special actions if energy rises.

 Cycle   1  Pass 1  IDiag  1:
 E= -282.709834800578    
 DIIS: error= 2.64D-02 at cycle   1 NSaved=   1.
 NSaved= 1 IEnMin= 1 EnMin= -282.709834800578     IErMin= 1 ErrMin= 2.64D-02
 ErrMax= 2.64D-02  0.00D+00 EMaxC= 1.00D-01 BMatC= 5.83D-01 BMatP= 5.83D-01
 IDIUse=3 WtCom= 7.36D-01 WtEn= 2.64D-01
 Coeff-Com:  0.100D+01
 Coeff-En:   0.100D+01
 Coeff:      0.100D+01
 Gap=     0.396 Goal=   None    Shift=    0.000
 GapD=    0.396 DampG=1.000 DampE=0.500 DampFc=0.5000 IDamp=-1.
 Damping current iteration by 5.00D-01
 RMSDP=1.70D-03 MaxDP=4.72D-02              OVMax= 1.23D-01

 Cycle   2  Pass 1  IDiag  1:
 E= -282.834677875146     Delta-E=       -0.124843074568 Rises=F Damp=T
 DIIS: error= 1.42D-02 at cycle   2 NSaved=   2.
 NSaved= 2 IEnMin= 2 EnMin= -282.834677875146     IErMin= 2 ErrMin= 1.42D-02
 ErrMax= 1.42D-02  0.00D+00 EMaxC= 1.00D-01 BMatC= 1.18D-01 BMatP= 5.83D-01
 IDIUse=3 WtCom= 8.58D-01 WtEn= 1.42D-01
 Coeff-Com: -0.581D+00 0.158D+01
 Coeff-En:   0.000D+00 0.100D+01
 Coeff:     -0.498D+00 0.150D+01
 Gap=     0.468 Goal=   None    Shift=    0.000
 RMSDP=6.88D-04 MaxDP=2.82D-02 DE=-1.25D-01 OVMax= 4.97D-02

 Cycle   3  Pass 1  IDiag  1:
 E= -282.944968692799     Delta-E=       -0.110290817653 Rises=F Damp=F
 DIIS: error= 4.34D-03 at cycle   3 NSaved=   3.
 NSaved= 3 IEnMin= 3 EnMin= -282.944968692799     IErMin= 3 ErrMin= 4.34D-03
 ErrMax= 4.34D-03  0.00D+00 EMaxC= 1.00D-01 BMatC= 5.17D-03 BMatP= 1.18D-01
 IDIUse=3 WtCom= 9.57D-01 WtEn= 4.34D-02
 Coeff-Com: -0.180D+00 0.317D+00 0.863D+00
 Coeff-En:   0.000D+00 0.000D+00 0.100D+01
 Coeff:     -0.172D+00 0.303D+00 0.869D+00
 Gap=     0.457 Goal=   None    Shift=    0.000
 RMSDP=1.53D-04 MaxDP=6.56D-03 DE=-1.10D-01 OVMax= 2.15D-02

 Cycle   4  Pass 1  IDiag  1:
 E= -282.948315265563     Delta-E=       -0.003346572764 Rises=F Damp=F
 DIIS: error= 1.07D-03 at cycle   4 NSaved=   4.
 NSaved= 4 IEnMin= 4 EnMin= -282.948315265563     IErMin= 4 ErrMin= 1.07D-03
 ErrMax= 1.07D-03  0.00D+00 EMaxC= 1.00D-01 BMatC= 3.66D-04 BMatP= 5.17D-03
 IDIUse=3 WtCom= 9.89D-01 WtEn= 1.07D-02
 Coeff-Com: -0.406D-01 0.598D-01 0.278D+00 0.703D+00
 Coeff-En:   0.000D+00 0.000D+00 0.000D+00 0.100D+01
 Coeff:     -0.402D-01 0.592D-01 0.275D+00 0.706D+00
 Gap=     0.453 Goal=   None    Shift=    0.000
 RMSDP=4.21D-05 MaxDP=1.33D-03 DE=-3.35D-03 OVMax= 4.32D-03

 Cycle   5  Pass 1  IDiag  1:
 E= -282.948630323689     Delta-E=       -0.000315058126 Rises=F Damp=F
 DIIS: error= 3.92D-04 at cycle   5 NSaved=   5.
 NSaved= 5 IEnMin= 5 EnMin= -282.948630323689     IErMin= 5 ErrMin= 3.92D-04
 ErrMax= 3.92D-04  0.00D+00 EMaxC= 1.00D-01 BMatC= 2.56D-05 BMatP= 3.66D-04
 IDIUse=3 WtCom= 9.96D-01 WtEn= 3.92D-03
 Coeff-Com:  0.170D-01-0.304D-01-0.859D-01 0.302D-01 0.107D+01
 Coeff-En:   0.000D+00 0.000D+00 0.000D+00 0.000D+00 0.100D+01
 Coeff:      0.169D-01-0.302D-01-0.856D-01 0.300D-01 0.107D+01
 Gap=     0.454 Goal=   None    Shift=    0.000
 RMSDP=2.51D-05 MaxDP=8.12D-04 DE=-3.15D-04 OVMax= 3.58D-03

 Cycle   6  Pass 1  IDiag  1:
 E= -282.948679363722     Delta-E=       -0.000049040033 Rises=F Damp=F
 DIIS: error= 1.06D-04 at cycle   6 NSaved=   6.
 NSaved= 6 IEnMin= 6 EnMin= -282.948679363722     IErMin= 6 ErrMin= 1.06D-04
 ErrMax= 1.06D-04  0.00D+00 EMaxC= 1.00D-01 BMatC= 4.18D-06 BMatP= 2.56D-05
 IDIUse=3 WtCom= 9.99D-01 WtEn= 1.06D-03
 Coeff-Com:  0.863D-02-0.141D-01-0.513D-01-0.822D-01 0.241D+00 0.898D+00
 Coeff-En:   0.000D+00 0.000D+00 0.000D+00 0.000D+00 0.000D+00 0.100D+01
 Coeff:      0.862D-02-0.141D-01-0.513D-01-0.821D-01 0.240D+00 0.899D+00
 Gap=     0.454 Goal=   None    Shift=    0.000
 RMSDP=9.92D-06 MaxDP=2.53D-04 DE=-4.90D-05 OVMax= 1.03D-03

 Cycle   7  Pass 1  IDiag  1:
 E= -282.948686701902     Delta-E=       -0.000007338180 Rises=F Damp=F
 DIIS: error= 4.51D-05 at cycle   7 NSaved=   7.
 NSaved= 7 IEnMin= 7 EnMin= -282.948686701902     IErMin= 7 ErrMin= 4.51D-05
 ErrMax= 4.51D-05  0.00D+00 EMaxC= 1.00D-01 BMatC= 4.37D-07 BMatP= 4.18D-06
 IDIUse=1 WtCom= 1.00D+00 WtEn= 0.00D+00
 Coeff-Com: -0.173D-02 0.311D-02 0.112D-01-0.101D-01-0.112D+00-0.814D-02
 Coeff-Com:  0.112D+01
 Coeff:     -0.173D-02 0.311D-02 0.112D-01-0.101D-01-0.112D+00-0.814D-02
 Coeff:      0.112D+01
 Gap=     0.454 Goal=   None    Shift=    0.000
 RMSDP=4.19D-06 MaxDP=1.33D-04 DE=-7.34D-06 OVMax= 6.61D-04

 Cycle   8  Pass 1  IDiag  1:
 E= -282.948687927153     Delta-E=       -0.000001225250 Rises=F Damp=F
 DIIS: error= 1.38D-05 at cycle   8 NSaved=   8.
 NSaved= 8 IEnMin= 8 EnMin= -282.948687927153     IErMin= 8 ErrMin= 1.38D-05
 ErrMax= 1.38D-05  0.00D+00 EMaxC= 1.00D-01 BMatC= 7.16D-08 BMatP= 4.37D-07
 IDIUse=1 WtCom= 1.00D+00 WtEn= 0.00D+00
 Coeff-Com: -0.112D-02 0.180D-02 0.739D-02 0.835D-02-0.240D-01-0.124D+00
 Coeff-Com: -0.921D-01 0.122D+01
 Coeff:     -0.112D-02 0.180D-02 0.739D-02 0.835D-02-0.240D-01-0.124D+00
 Coeff:     -0.921D-01 0.122D+01
 Gap=     0.454 Goal=   None    Shift=    0.000
 RMSDP=1.97D-06 MaxDP=6.77D-05 DE=-1.23D-06 OVMax= 3.02D-04

 Cycle   9  Pass 1  IDiag  1:
 E= -282.948688139233     Delta-E=       -0.000000212080 Rises=F Damp=F
 DIIS: error= 4.51D-06 at cycle   9 NSaved=   9.
 NSaved= 9 IEnMin= 9 EnMin= -282.948688139233     IErMin= 9 ErrMin= 4.51D-06
 ErrMax= 4.51D-06  0.00D+00 EMaxC= 1.00D-01 BMatC= 8.47D-09 BMatP= 7.16D-08
 IDIUse=1 WtCom= 1.00D+00 WtEn= 0.00D+00
 Coeff-Com:  0.392D-04-0.110D-03-0.125D-03 0.148D-02 0.115D-01-0.171D-01
 Coeff-Com: -0.142D+00 0.150D+00 0.996D+00
 Coeff:      0.392D-04-0.110D-03-0.125D-03 0.148D-02 0.115D-01-0.171D-01
 Coeff:     -0.142D+00 0.150D+00 0.996D+00
 Gap=     0.454 Goal=   None    Shift=    0.000
 RMSDP=4.93D-07 MaxDP=1.94D-05 DE=-2.12D-07 OVMax= 8.35D-05

 Cycle  10  Pass 1  IDiag  1:
 E= -282.948688158803     Delta-E=       -0.000000019570 Rises=F Damp=F
 DIIS: error= 2.12D-06 at cycle  10 NSaved=  10.
 NSaved=10 IEnMin=10 EnMin= -282.948688158803     IErMin=10 ErrMin= 2.12D-06
 ErrMax= 2.12D-06  0.00D+00 EMaxC= 1.00D-01 BMatC= 9.74D-10 BMatP= 8.47D-09
 IDIUse=1 WtCom= 1.00D+00 WtEn= 0.00D+00
 Coeff-Com:  0.177D-03-0.291D-03-0.110D-02-0.157D-02 0.503D-02 0.170D-01
 Coeff-Com:  0.863D-02-0.178D+00 0.549D-01 0.110D+01
 Coeff:      0.177D-03-0.291D-03-0.110D-02-0.157D-02 0.503D-02 0.170D-01
 Coeff:      0.863D-02-0.178D+00 0.549D-01 0.110D+01
 Gap=     0.454 Goal=   None    Shift=    0.000
 RMSDP=1.92D-07 MaxDP=7.70D-06 DE=-1.96D-08 OVMax= 2.60D-05

 Cycle  11  Pass 1  IDiag  1:
 E= -282.948688161036     Delta-E=       -0.000000002233 Rises=F Damp=F
 DIIS: error= 4.06D-07 at cycle  11 NSaved=  11.
 NSaved=11 IEnMin=11 EnMin= -282.948688161036     IErMin=11 ErrMin= 4.06D-07
 ErrMax= 4.06D-07  0.00D+00 EMaxC= 1.00D-01 BMatC= 5.55D-11 BMatP= 9.74D-10
 IDIUse=1 WtCom= 1.00D+00 WtEn= 0.00D+00
 Coeff-Com: -0.448D-05 0.962D-05 0.627D-04-0.516D-04-0.796D-03-0.229D-04
 Coeff-Com:  0.845D-02 0.361D-02-0.828D-01-0.727D-01 0.114D+01
 Coeff:     -0.448D-05 0.962D-05 0.627D-04-0.516D-04-0.796D-03-0.229D-04
 Coeff:      0.845D-02 0.361D-02-0.828D-01-0.727D-01 0.114D+01
 Gap=     0.454 Goal=   None    Shift=    0.000
 RMSDP=4.65D-08 MaxDP=1.58D-06 DE=-2.23D-09 OVMax= 5.05D-06

 Cycle  12  Pass 1  IDiag  1:
 E= -282.948688161162     Delta-E=       -0.000000000126 Rises=F Damp=F
 DIIS: error= 1.26D-07 at cycle  12 NSaved=  12.
 NSaved=12 IEnMin=12 EnMin= -282.948688161162     IErMin=12 ErrMin= 1.26D-07
 ErrMax= 1.26D-07  0.00D+00 EMaxC= 1.00D-01 BMatC= 3.76D-12 BMatP= 5.55D-11
 IDIUse=1 WtCom= 1.00D+00 WtEn= 0.00D+00
 Coeff-Com: -0.107D-04 0.173D-04 0.750D-04 0.952D-04-0.277D-03-0.121D-02
 Coeff-Com: -0.159D-02 0.143D-01-0.315D-03-0.776D-01-0.582D-01 0.112D+01
 Coeff:     -0.107D-04 0.173D-04 0.750D-04 0.952D-04-0.277D-03-0.121D-02
 Coeff:     -0.159D-02 0.143D-01-0.315D-03-0.776D-01-0.582D-01 0.112D+01
 Gap=     0.454 Goal=   None    Shift=    0.000
 RMSDP=1.28D-08 MaxDP=3.77D-07 DE=-1.26D-10 OVMax= 1.16D-06

 Cycle  13  Pass 1  IDiag  1:
 E= -282.948688161172     Delta-E=       -0.000000000010 Rises=F Damp=F
 DIIS: error= 3.71D-08 at cycle  13 NSaved=  13.
 NSaved=13 IEnMin=13 EnMin= -282.948688161172     IErMin=13 ErrMin= 3.71D-08
 ErrMax= 3.71D-08  0.00D+00 EMaxC= 1.00D-01 BMatC= 3.31D-13 BMatP= 3.76D-12
 IDIUse=1 WtCom= 1.00D+00 WtEn= 0.00D+00
 Coeff-Com:  0.421D-06-0.958D-06-0.385D-05 0.135D-05 0.716D-04 0.864D-06
 Coeff-Com: -0.919D-03 0.289D-03 0.705D-02 0.271D-02-0.102D+00 0.668D-01
 Coeff-Com:  0.103D+01
 Coeff:      0.421D-06-0.958D-06-0.385D-05 0.135D-05 0.716D-04 0.864D-06
 Coeff:     -0.919D-03 0.289D-03 0.705D-02 0.271D-02-0.102D+00 0.668D-01
 Coeff:      0.103D+01
 Gap=     0.454 Goal=   None    Shift=    0.000
 RMSDP=3.86D-09 MaxDP=1.27D-07 DE=-1.02D-11 OVMax= 2.74D-07

 SCF Done:  E(RHF) =  -282.948688161     A.U. after   13 cycles
            NFock= 13  Conv=0.39D-08     -V/T= 2.0015
 KE= 2.825363169775D+02 PE=-1.026238373784D+03 EE= 2.807461127156D+02
 Leave Link  502 at Sat Jan 16 07:55:21 2021, MaxMem= 13421772800 cpu:             113.5 elap:              10.8
 (Enter /data2/software/Gaussian/g16_c01-gpu/g16/l801.exe)
 Windowed orbitals will be sorted by symmetry type.
 ExpMin= 3.57D-02 ExpMax= 1.53D+04 ExpMxC= 5.22D+02 IAcc=3 IRadAn=         5 AccDes= 0.00D+00
 HarFok:  IExCor=  205 AccDes= 0.00D+00 IRadAn=         5 IDoV=-2 UseB2=F ITyADJ=14
 ICtDFT= 12500011 ScaDFX=  1.000000  1.000000  1.000000  1.000000
 Largest valence mixing into a core orbital is  2.05D-04
 Largest core mixing into a valence orbital is  3.06D-05
 Range of M.O.s used for correlation:     6   265
 NBasis=   265 NAE=    20 NBE=    20 NFC=     5 NFV=     0
 NROrb=    260 NOA=    15 NOB=    15 NVA=   245 NVB=   245

 **** Warning!!: The largest alpha MO coefficient is  0.33148944D+02

 Leave Link  801 at Sat Jan 16 07:55:22 2021, MaxMem= 13421772800 cpu:               1.6 elap:               0.1
 (Enter /data2/software/Gaussian/g16_c01-gpu/g16/l804.exe)
 Closed-shell transformation, MDV= 13421772800 ITran=4 ISComp=2.
 Unit  1 TFree=       2333239 TCopy=       1236586.
 Semi-Direct transformation.
 ModeAB=           4 MOrb=            15 LenV=   13419945381
 LASXX=     63877396 LTotXX=    63877396 LenRXX=   128545993
 LTotAB=    64668597 MaxLAS=   144990300 LenRXY=           0
 NonZer=   192423389 LenScr=   289112064 LnRSAI=   144990300
 LnScr1=   218136576 LExtra=           0 Total=    780784933
 MaxDsk=          -1 SrtSym=           T ITran=            4
 DoSDTr:  NPSUse= 16
 JobTyp=0 Pass  1:  I=   1 to  15.
 (rs|ai) integrals will be sorted in core.
 Complete sort for first half transformation.
 First half transformation complete.
 Begin second half transformation for I=  10.
 Complete sort for second half transformation.
 Second half transformation complete.
 Spin components of T(2) and E(2):
     alpha-alpha T2 =       0.3602925459D-01 E2=     -0.1279416901D+00
     alpha-beta  T2 =       0.1996312826D+00 E2=     -0.7611093936D+00
     beta-beta   T2 =       0.3602925459D-01 E2=     -0.1279416901D+00
 ANorm=    0.1127692242D+01
 E2 =    -0.1016992774D+01 EUMP2 =    -0.28396568093506D+03
 Leave Link  804 at Sat Jan 16 07:56:00 2021, MaxMem= 13421772800 cpu:             578.6 elap:              38.0
 (Enter /data2/software/Gaussian/g16_c01-gpu/g16/l913.exe)
 CIDS:  MDV= 13421772800.
 Frozen-core window:  NFC=   5 NFV=   0.
 IFCWin=0 IBDFC=1 NFBD=     0     0 NFCmp=     0     0 NFFFC=     0     0
 Using DD3R+UMP44R for 1st iteration.
 Using DD4RQ for 2nd and later iterations.
 Keep R2 and R3 ints in memory in symmetry-blocked form, NReq=937075696.
 FoFCou: FMM=F IPFlag=           0 FMFlag=           0 FMFlg1=           0
         NFxFlg=           0 DoJE=F BraDBF=F KetDBF=F FulRan=T
         wScrn=  0.000000 ICntrl=       600 IOpCl=  0 I1Cent=           0 NGrid=           0
         NMat0=    1 NMatS0=  35245 NMatT0=    0 NMatD0=    1 NMtDS0=    0 NMtDT0=    0
 Petite list used in FoFCou.
 CIDS: In Core Option IDoMem=           1.
 CCSD(T)
 =======
 Iterations=  50 Convergence= 0.100D-06
 Produce multiple copies of IABC intergrals
 Iteration Nr.   1
 **********************
 DD1Dir will call FoFMem   1 times, MxPair=       240
 NAB=   120 NAA=     0 NBB=     0.
 MP4(R+Q)=  0.22208149D-01
 Maximum subspace dimension=  5
 A-vector RMS=  2.1878230D-03 Max=  2.9400617D-02 conv= 1.00D-05.
 RLE energy=       -1.0049837728
 E3=       -0.10578254D-01        EUMP3=      -0.28397625919D+03
 E4(DQ)=    0.14397634D-02        UMP4(DQ)=   -0.28397481943D+03
 E4(SDQ)=  -0.10006205D-01        UMP4(SDQ)=  -0.28398626539D+03
 VARIATIONAL ENERGIES WITH THE FIRST-ORDER WAVEFUNCTION:
 DE(Corr)=  -1.0048405     E(Corr)=     -283.95352870    
 NORM(A)=   0.11274473D+01
 Iteration Nr.   2
 **********************
 DD1Dir will call FoFMem   1 times, MxPair=       240
 NAB=   120 NAA=     0 NBB=     0.
 A-vector RMS=  3.1693216D-04 Max=  7.3974995D-03 conv= 1.00D-05.
 RLE energy=       -1.0326998051
 DE(Corr)=  -1.0323833     E(CORR)=     -283.98107142     Delta=-2.75D-02
 NORM(A)=   0.11369884D+01
 Iteration Nr.   3
 **********************
 DD1Dir will call FoFMem   1 times, MxPair=       240
 NAB=   120 NAA=     0 NBB=     0.
 A-vector RMS=  4.1376069D-04 Max=  6.7101508D-03 conv= 1.00D-05.
 RLE energy=       -1.0342458509
 DE(Corr)=  -1.0318715     E(CORR)=     -283.98055965     Delta= 5.12D-04
 NORM(A)=   0.11395843D+01
 Iteration Nr.   4
 **********************
 DD1Dir will call FoFMem   1 times, MxPair=       240
 NAB=   120 NAA=     0 NBB=     0.
 A-vector RMS=  6.9559242D-05 Max=  1.0493094D-03 conv= 1.00D-05.
 RLE energy=       -1.0344227051
 DE(Corr)=  -1.0342318     E(CORR)=     -283.98292001     Delta=-2.36D-03
 NORM(A)=   0.11403849D+01
 Iteration Nr.   5
 **********************
 DD1Dir will call FoFMem   1 times, MxPair=       240
 NAB=   120 NAA=     0 NBB=     0.
 A-vector RMS=  4.4216032D-05 Max=  6.0027244D-04 conv= 1.00D-05.
 RLE energy=       -1.0345328349
 DE(Corr)=  -1.0344870     E(CORR)=     -283.98317516     Delta=-2.55D-04
 NORM(A)=   0.11406448D+01
 Iteration Nr.   6
 **********************
 DD1Dir will call FoFMem   1 times, MxPair=       240
 NAB=   120 NAA=     0 NBB=     0.
 A-vector RMS=  1.2321810D-05 Max=  1.9737427D-04 conv= 1.00D-05.
 RLE energy=       -1.0345194246
 DE(Corr)=  -1.0345110     E(CORR)=     -283.98319919     Delta=-2.40D-05
 NORM(A)=   0.11406777D+01
 Iteration Nr.   7
 **********************
 DD1Dir will call FoFMem   1 times, MxPair=       240
 NAB=   120 NAA=     0 NBB=     0.
 A-vector RMS=  6.0255447D-06 Max=  9.3912534D-05 conv= 1.00D-05.
 RLE energy=       -1.0344980129
 DE(Corr)=  -1.0345121     E(CORR)=     -283.98320025     Delta=-1.06D-06
 NORM(A)=   0.11406797D+01
 Iteration Nr.   8
 **********************
 DD1Dir will call FoFMem   1 times, MxPair=       240
 NAB=   120 NAA=     0 NBB=     0.
 A-vector RMS=  1.7053734D-06 Max=  2.3205908D-05 conv= 1.00D-05.
 RLE energy=       -1.0345097373
 DE(Corr)=  -1.0345108     E(CORR)=     -283.98319898     Delta= 1.26D-06
 NORM(A)=   0.11406846D+01
 Iteration Nr.   9
 **********************
 DD1Dir will call FoFMem   1 times, MxPair=       240
 NAB=   120 NAA=     0 NBB=     0.
 A-vector RMS=  7.1858651D-07 Max=  1.2281996D-05 conv= 1.00D-05.
 RLE energy=       -1.0345093701
 DE(Corr)=  -1.0345097     E(CORR)=     -283.98319787     Delta= 1.11D-06
 NORM(A)=   0.11406849D+01
 Iteration Nr.  10
 **********************
 DD1Dir will call FoFMem   1 times, MxPair=       240
 NAB=   120 NAA=     0 NBB=     0.
 A-vector RMS=  3.1160900D-07 Max=  3.7303588D-06 conv= 1.00D-05.
 RLE energy=       -1.0345104244
 DE(Corr)=  -1.0345105     E(CORR)=     -283.98319867     Delta=-7.96D-07
 NORM(A)=   0.11406855D+01
 Iteration Nr.  11
 **********************
 DD1Dir will call FoFMem   1 times, MxPair=       240
 NAB=   120 NAA=     0 NBB=     0.
 A-vector RMS=  1.3084512D-07 Max=  2.0148072D-06 conv= 1.00D-05.
 RLE energy=       -1.0345108302
 DE(Corr)=  -1.0345107     E(CORR)=     -283.98319883     Delta=-1.54D-07
 NORM(A)=   0.11406859D+01
 Iteration Nr.  12
 **********************
 DD1Dir will call FoFMem   1 times, MxPair=       240
 NAB=   120 NAA=     0 NBB=     0.
 A-vector RMS=  5.8515282D-08 Max=  1.1041747D-06 conv= 1.00D-05.
 RLE energy=       -1.0345109701
 DE(Corr)=  -1.0345109     E(CORR)=     -283.98319907     Delta=-2.43D-07
 NORM(A)=   0.11406861D+01
 Iteration Nr.  13
 **********************
 DD1Dir will call FoFMem   1 times, MxPair=       240
 NAB=   120 NAA=     0 NBB=     0.
 A-vector RMS=  2.9509790D-08 Max=  3.4578103D-07 conv= 1.00D-05.
 RLE energy=       -1.0345109899
 DE(Corr)=  -1.0345110     E(CORR)=     -283.98319912     Delta=-5.28D-08
 NORM(A)=   0.11406862D+01
 CI/CC converged in   13 iterations to DelEn=-5.28D-08 Conv= 1.00D-07 ErrA1= 2.95D-08 Conv= 1.00D-05
 Wavefunction amplitudes converged. E(Corr)=     -283.98319912    
 Largest amplitude= 4.36D-02
 IPart=  7 IA=   14   10.35% done.
 IPart=  6 IA=   27   20.14% done.
 IPart=  2 IA=   41   30.04% done.
 IPart= 15 IA=   57   40.56% done.
 IPart= 12 IA=   73   50.22% done.
 IPart=  1 IA=   91   60.07% done.
 IPart=  8 IA=  112   70.19% done.
 IPart= 13 IA=  137   80.31% done.
 IPart= 10 IA=  169   90.21% done.
 Time for triples=    73007.51 seconds.
 T4(CCSD)= -0.45930042D-01
 T5(CCSD)=  0.21299673D-02
 CCSD(T)= -0.28402699920D+03
 Discarding MO integrals.
 Leave Link  913 at Sat Jan 16 09:34:39 2021, MaxMem= 13421772800 cpu:           87842.1 elap:            5919.1
 (Enter /data2/software/Gaussian/g16_c01-gpu/g16/l601.exe)
 Copying SCF densities to generalized density rwf, IOpCl= 0 IROHF=0.

 **********************************************************************

            Population analysis using the SCF Density.

 **********************************************************************

 Orbital symmetries:
       Occupied  (A') (A') (A') (A') (A') (A') (A') (A') (A') (A')
                 (A') (A") (A') (A") (A') (A') (A") (A') (A") (A')
       Virtual   (A') (A') (A') (A") (A') (A") (A') (A') (A") (A")
                 (A') (A') (A') (A") (A') (A') (A') (A") (A') (A')
                 (A") (A") (A') (A') (A') (A') (A") (A') (A") (A')
                 (A") (A') (A') (A') (A") (A') (A') (A') (A") (A')
                 (A") (A') (A') (A') (A") (A") (A') (A') (A') (A")
                 (A') (A') (A") (A') (A') (A') (A") (A') (A") (A')
                 (A") (A') (A") (A') (A') (A") (A') (A') (A") (A')
                 (A') (A") (A") (A') (A') (A") (A") (A') (A') (A")
                 (A') (A") (A') (A') (A") (A') (A") (A') (A') (A")
                 (A") (A') (A') (A") (A') (A') (A') (A') (A') (A")
                 (A') (A') (A') (A') (A") (A") (A') (A') (A') (A")
                 (A") (A') (A') (A") (A") (A') (A') (A") (A') (A')
                 (A') (A") (A') (A') (A") (A') (A") (A') (A') (A')
                 (A") (A') (A') (A") (A") (A') (A") (A') (A") (A")
                 (A') (A") (A") (A') (A') (A") (A') (A") (A") (A')
                 (A') (A") (A') (A") (A') (A") (A') (A') (A") (A")
                 (A') (A') (A') (A") (A') (A") (A') (A") (A') (A")
                 (A') (A') (A') (A") (A') (A") (A') (A') (A') (A")
                 (A") (A') (A') (A") (A") (A') (A') (A") (A') (A')
                 (A") (A') (A') (A') (A") (A') (A") (A') (A') (A")
                 (A') (A") (A') (A") (A') (A') (A') (A') (A") (A')
                 (A") (A') (A") (A') (A') (A') (A") (A') (A") (A")
                 (A") (A') (A') (A") (A') (A") (A') (A") (A') (A")
                 (A') (A") (A') (A") (A') (A") (A') (A') (A') (A')
                 (A') (A') (A') (A') (A')
 The electronic state is 1-A'.
 Alpha  occ. eigenvalues --  -20.62256 -20.55232 -15.55697 -11.38825 -11.27899
 Alpha  occ. eigenvalues --   -1.47534  -1.36907  -1.20240  -0.97605  -0.83428
 Alpha  occ. eigenvalues --   -0.71161  -0.70145  -0.69559  -0.63262  -0.59937
 Alpha  occ. eigenvalues --   -0.58366  -0.54819  -0.48731  -0.48392  -0.40497
 Alpha virt. eigenvalues --    0.04921   0.05857   0.07179   0.07314   0.09868
 Alpha virt. eigenvalues --    0.10072   0.10561   0.13149   0.13497   0.16156
 Alpha virt. eigenvalues --    0.17066   0.17756   0.19484   0.19593   0.19943
 Alpha virt. eigenvalues --    0.23474   0.23815   0.25124   0.25912   0.26815
 Alpha virt. eigenvalues --    0.27485   0.29834   0.30313   0.31696   0.33020
 Alpha virt. eigenvalues --    0.34773   0.35921   0.39023   0.39799   0.40254
 Alpha virt. eigenvalues --    0.40820   0.43908   0.44625   0.46821   0.49588
 Alpha virt. eigenvalues --    0.51541   0.52100   0.53806   0.56593   0.57255
 Alpha virt. eigenvalues --    0.59569   0.60335   0.62229   0.63776   0.65487
 Alpha virt. eigenvalues --    0.67236   0.68293   0.70628   0.71961   0.74596
 Alpha virt. eigenvalues --    0.76043   0.78218   0.79133   0.79571   0.80310
 Alpha virt. eigenvalues --    0.82844   0.84843   0.85703   0.86914   0.87751
 Alpha virt. eigenvalues --    0.90481   0.91765   0.93924   0.94446   0.97597
 Alpha virt. eigenvalues --    0.99766   1.03816   1.04847   1.06099   1.08534
 Alpha virt. eigenvalues --    1.09443   1.13482   1.19936   1.20605   1.21714
 Alpha virt. eigenvalues --    1.25021   1.26773   1.29190   1.31643   1.32579
 Alpha virt. eigenvalues --    1.34817   1.38334   1.38554   1.43297   1.45513
 Alpha virt. eigenvalues --    1.46386   1.48657   1.48928   1.54033   1.54362
 Alpha virt. eigenvalues --    1.57790   1.59905   1.62330   1.63884   1.66325
 Alpha virt. eigenvalues --    1.67418   1.71177   1.73609   1.77475   1.77871
 Alpha virt. eigenvalues --    1.80950   1.88551   1.91665   1.98545   2.03866
 Alpha virt. eigenvalues --    2.08823   2.09129   2.14918   2.16911   2.19209
 Alpha virt. eigenvalues --    2.25307   2.25487   2.33301   2.40684   2.45260
 Alpha virt. eigenvalues --    2.47149   2.57051   2.62551   2.63161   2.71520
 Alpha virt. eigenvalues --    2.73866   2.86283   2.87869   2.98994   3.02663
 Alpha virt. eigenvalues --    3.05970   3.16780   3.17488   3.25038   3.25800
 Alpha virt. eigenvalues --    3.26823   3.29319   3.29721   3.31760   3.36904
 Alpha virt. eigenvalues --    3.41452   3.46769   3.47282   3.49967   3.52659
 Alpha virt. eigenvalues --    3.57802   3.59479   3.60704   3.61505   3.62750
 Alpha virt. eigenvalues --    3.67020   3.69715   3.69941   3.71055   3.72159
 Alpha virt. eigenvalues --    3.75609   3.79533   3.81853   3.85312   3.89650
 Alpha virt. eigenvalues --    3.93082   3.93704   3.96386   3.97474   3.99651
 Alpha virt. eigenvalues --    4.05239   4.07107   4.12076   4.14238   4.20011
 Alpha virt. eigenvalues --    4.23262   4.25994   4.26101   4.27384   4.30047
 Alpha virt. eigenvalues --    4.33344   4.40268   4.41180   4.44464   4.47186
 Alpha virt. eigenvalues --    4.49591   4.53411   4.54021   4.60213   4.64528
 Alpha virt. eigenvalues --    4.65942   4.67816   4.71420   4.72825   4.77756
 Alpha virt. eigenvalues --    4.81702   4.82055   4.84179   4.86517   5.05243
 Alpha virt. eigenvalues --    5.05800   5.09261   5.14265   5.25188   5.29738
 Alpha virt. eigenvalues --    5.31524   5.37199   5.42992   5.49375   5.55537
 Alpha virt. eigenvalues --    5.58249   5.61146   5.62175   5.63244   5.73474
 Alpha virt. eigenvalues --    5.76705   5.82737   5.84703   5.89910   6.02124
 Alpha virt. eigenvalues --    6.05891   6.08895   6.11256   6.19358   6.23916
 Alpha virt. eigenvalues --    6.30833   6.31836   6.45395   6.47098   6.52039
 Alpha virt. eigenvalues --    6.63910   6.69222   6.74231   6.77132   6.97164
 Alpha virt. eigenvalues --    7.00760   7.04321   7.12808   7.21960   7.24296
 Alpha virt. eigenvalues --    7.33165   7.34990   7.38119   7.43153   7.56898
 Alpha virt. eigenvalues --    7.59138   7.69214   7.79373   7.94325   8.15320
 Alpha virt. eigenvalues --   12.06005  13.56225  14.14951  14.42807  14.74090
          Condensed to atoms (all electrons):
               1          2          3          4          5          6
     1  C    4.585283   0.267170   0.522570  -0.007641   0.267887  -0.019696
     2  O    0.267170   7.936932  -0.100053   0.272960  -0.024575  -0.037529
     3  O    0.522570  -0.100053   8.116948  -0.006467  -0.026771  -0.001735
     4  H   -0.007641   0.272960  -0.006467   0.525891  -0.001831   0.002696
     5  C    0.267887  -0.024575  -0.026771  -0.001831   4.891557   0.185452
     6  N   -0.019696  -0.037529  -0.001735   0.002696   0.185452   6.748952
     7  H   -0.008815   0.002047  -0.002595   0.000049   0.418128  -0.048841
     8  H   -0.008815   0.002047  -0.002595   0.000049   0.418128  -0.048841
     9  H   -0.005124   0.000557  -0.000530   0.000134   0.009335   0.318917
    10  H   -0.005124   0.000557  -0.000530   0.000134   0.009335   0.318917
               7          8          9         10
     1  C   -0.008815  -0.008815  -0.005124  -0.005124
     2  O    0.002047   0.002047   0.000557   0.000557
     3  O   -0.002595  -0.002595  -0.000530  -0.000530
     4  H    0.000049   0.000049   0.000134   0.000134
     5  C    0.418128   0.418128   0.009335   0.009335
     6  N   -0.048841  -0.048841   0.318917   0.318917
     7  H    0.434665  -0.009771   0.005157  -0.001190
     8  H   -0.009771   0.434665  -0.001190   0.005157
     9  H    0.005157  -0.001190   0.542354  -0.036927
    10  H   -0.001190   0.005157  -0.036927   0.542354
 Mulliken charges:
               1
     1  C    0.412304
     2  O   -0.320113
     3  O   -0.498242
     4  H    0.214026
     5  C   -0.146646
     6  N   -0.418293
     7  H    0.211166
     8  H    0.211166
     9  H    0.167317
    10  H    0.167317
 Sum of Mulliken charges =  -0.00000
 Mulliken charges with hydrogens summed into heavy atoms:
               1
     1  C    0.412304
     2  O   -0.106088
     3  O   -0.498242
     5  C    0.275685
     6  N   -0.083659
 Electronic spatial extent (au):  <R**2>=            415.6656
 Charge=              0.0000 electrons
 Dipole moment (field-independent basis, Debye):
    X=             -1.7887    Y=             -1.0094    Z=              0.0000  Tot=              2.0539
 Quadrupole moment (field-independent basis, Debye-Ang):
   XX=            -27.8659   YY=            -37.2935   ZZ=            -27.2300
   XY=             -2.1754   XZ=             -0.0000   YZ=             -0.0000
 Traceless Quadrupole moment (field-independent basis, Debye-Ang):
   XX=              2.9306   YY=             -6.4970   ZZ=              3.5664
   XY=             -2.1754   XZ=             -0.0000   YZ=             -0.0000
 Octapole moment (field-independent basis, Debye-Ang**2):
  XXX=             -8.6393  YYY=              4.8718  ZZZ=             -0.0000  XYY=            -19.5917
  XXY=              6.8622  XXZ=             -0.0000  XZZ=             -0.8643  YZZ=             -2.2105
  YYZ=              0.0000  XYZ=              0.0000
 Hexadecapole moment (field-independent basis, Debye-Ang**3):
 XXXX=           -131.6147 YYYY=           -378.5450 ZZZZ=            -34.3837 XXXY=             -0.5596
 XXXZ=             -0.0000 YYYX=             24.3109 YYYZ=             -0.0000 ZZZX=              0.0000
 ZZZY=             -0.0000 XXYY=            -72.4285 XXZZ=            -28.6011 YYZZ=            -53.7464
 XXYZ=              0.0000 YYXZ=             -0.0000 ZZXY=              5.8156
 N-N= 1.800072559301D+02 E-N=-1.026238371727D+03  KE= 2.825363169775D+02
 Symmetry A'   KE= 2.697254841230D+02
 Symmetry A"   KE= 1.281083285454D+01
 Leave Link  601 at Sat Jan 16 09:34:39 2021, MaxMem= 13421772800 cpu:               3.9 elap:               0.3
 (Enter /data2/software/Gaussian/g16_c01-gpu/g16/l9999.exe)
 Unable to Open any file for archive entry.
 1\1\GINC-CU06\SP\RCCSD(T)-FC\Jun-CC-pVTZ\C2H5N1O2\SHUCHONG\16-Jan-2021
 \0\\#p #p CCSD(T)/jun-cc-pvtz\\start best geom PCCP paper\\0,1\C\O,1,1
 .34824\O,1,1.20339,2,122.72896\H,2,0.965621,1,106.37597,3,0.,0\C,1,1.5
 1736,3,123.80161,2,180.,0\N,5,1.44458,1,118.62999,3,180.,0\H,5,1.0899,
 1,105.95621,3,56.19793,0\H,5,1.0899,1,105.95621,3,-56.19793,0\H,6,1.00
 975,5,111.34671,1,59.71795,0\H,6,1.00975,5,111.34671,1,-59.71795,0\\Ve
 rsion=AM64L-G16RevC.01\State=1-A'\HF=-282.9486882\MP2=-283.9656809\MP3
 =-283.9762592\MP4D=-283.9970276\MP4DQ=-283.9748194\MP4SDQ=-283.9862654
 \CCSD=-283.9831991\CCSD(T)=-284.0269992\RMSD=3.857e-09\PG=CS [SG(C2H1N
 1O2),X(H4)]\\@
 The archive entry for this job was punched.


 COMMON SENSE IS NOT SO COMMON.   -- VOLTAIRE
 Job cpu time:       1 days  0 hours 36 minutes 13.6 seconds.
 Elapsed time:       0 days  1 hours 39 minutes 31.2 seconds.
 File lengths (MBytes):  RWF=   6101 Int=      0 D2E=      0 Chk=      6 Scr=      1
 Normal termination of Gaussian 16 at Sat Jan 16 09:34:40 2021.
