 Entering Gaussian System, Link 0=g16
 Input=ttc_Best_geom_CCSDT_jun_cc-pVTZ.gjf
 Output=ttc_Best_geom_CCSDT_jun_cc-pVTZ.log
 Initial command:
 /data2/software/Gaussian/g16_c01-gpu/g16/l1.exe "/home/shuchong/scratch/Gau-10526.inp" -scrdir="/home/shuchong/scratch/"
 Entering Link 1 = /data2/software/Gaussian/g16_c01-gpu/g16/l1.exe PID=     10527.
  
 Copyright (c) 1988-2019, Gaussian, Inc.  All Rights Reserved.
  
 This is part of the Gaussian(R) 16 program.  It is based on
 the Gaussian(R) 09 system (copyright 2009, Gaussian, Inc.),
 the Gaussian(R) 03 system (copyright 2003, Gaussian, Inc.),
 the Gaussian(R) 98 system (copyright 1998, Gaussian, Inc.),
 the Gaussian(R) 94 system (copyright 1995, Gaussian, Inc.),
 the Gaussian 92(TM) system (copyright 1992, Gaussian, Inc.),
 the Gaussian 90(TM) system (copyright 1990, Gaussian, Inc.),
 the Gaussian 88(TM) system (copyright 1988, Gaussian, Inc.),
 the Gaussian 86(TM) system (copyright 1986, Carnegie Mellon
 University), and the Gaussian 82(TM) system (copyright 1983,
 Carnegie Mellon University). Gaussian is a federally registered
 trademark of Gaussian, Inc.
  
 This software contains proprietary and confidential information,
 including trade secrets, belonging to Gaussian, Inc.
  
 This software is provided under written license and may be
 used, copied, transmitted, or stored only in accord with that
 written license.
  
 The following legend is applicable only to US Government
 contracts under FAR:
  
                    RESTRICTED RIGHTS LEGEND
  
 Use, reproduction and disclosure by the US Government is
 subject to restrictions as set forth in subparagraphs (a)
 and (c) of the Commercial Computer Software - Restricted
 Rights clause in FAR 52.227-19.
  
 Gaussian, Inc.
 340 Quinnipiac St., Bldg. 40, Wallingford CT 06492
  
  
 ---------------------------------------------------------------
 Warning -- This program may not be used in any manner that
 competes with the business of Gaussian, Inc. or will provide
 assistance to any competitor of Gaussian, Inc.  The licensee
 of this program is prohibited from giving any competitor of
 Gaussian, Inc. access to this program.  By using this program,
 the user acknowledges that Gaussian, Inc. is engaged in the
 business of creating and licensing software in the field of
 computational chemistry and represents and warrants to the
 licensee that it is not a competitor of Gaussian, Inc. and that
 it will not use this program in any manner prohibited above.
 ---------------------------------------------------------------
  

 Cite this work as:
 Gaussian 16, Revision C.01,
 M. J. Frisch, G. W. Trucks, H. B. Schlegel, G. E. Scuseria, 
 M. A. Robb, J. R. Cheeseman, G. Scalmani, V. Barone, 
 G. A. Petersson, H. Nakatsuji, X. Li, M. Caricato, A. V. Marenich, 
 J. Bloino, B. G. Janesko, R. Gomperts, B. Mennucci, H. P. Hratchian, 
 J. V. Ortiz, A. F. Izmaylov, J. L. Sonnenberg, D. Williams-Young, 
 F. Ding, F. Lipparini, F. Egidi, J. Goings, B. Peng, A. Petrone, 
 T. Henderson, D. Ranasinghe, V. G. Zakrzewski, J. Gao, N. Rega, 
 G. Zheng, W. Liang, M. Hada, M. Ehara, K. Toyota, R. Fukuda, 
 J. Hasegawa, M. Ishida, T. Nakajima, Y. Honda, O. Kitao, H. Nakai, 
 T. Vreven, K. Throssell, J. A. Montgomery, Jr., J. E. Peralta, 
 F. Ogliaro, M. J. Bearpark, J. J. Heyd, E. N. Brothers, K. N. Kudin, 
 V. N. Staroverov, T. A. Keith, R. Kobayashi, J. Normand, 
 K. Raghavachari, A. P. Rendell, J. C. Burant, S. S. Iyengar, 
 J. Tomasi, M. Cossi, J. M. Millam, M. Klene, C. Adamo, R. Cammi, 
 J. W. Ochterski, R. L. Martin, K. Morokuma, O. Farkas, 
 J. B. Foresman, and D. J. Fox, Gaussian, Inc., Wallingford CT, 2019.
 
 ******************************************
 Gaussian 16:  AM64L-G16RevC.01  3-Jul-2019
                16-Jan-2021 
 ******************************************
 %chk=ttc_Best_geom_CCSDT_jun_cc-pVTZ.chk
 %nprocshared=16
 Will use up to   16 processors via shared memory.
 %mem=100GB
 -------------------------
 #p #p CCSD(T)/jun-cc-pvtz
 -------------------------
 1/38=1,172=1/1;
 2/12=2,17=6,18=5,40=1/2;
 3/5=16,6=1,7=60,11=9,25=1,30=1/1,2,3;
 4//1;
 5/5=2,38=5/2;
 8/6=4,9=120000,10=1/1,4;
 9/5=7,14=2/13;
 6/7=2,8=2,9=2,10=2/1;
 99/5=1,9=1/99;
 Leave Link    1 at Sat Jan 16 09:34:40 2021, MaxMem= 13421772800 cpu:               1.0 elap:               0.1
 (Enter /data2/software/Gaussian/g16_c01-gpu/g16/l101.exe)
 --------------------------
 start best geom PCCP paper
 --------------------------
 Symbolic Z-matrix:
 Charge =  0 Multiplicity = 1
 C
 O                    1    B1
 O                    1    B2       2    A1
 H                    2    B3       1    A2       3    D1       0
 C                    1    B4       3    A3       2    D2       0
 N                    5    B5       1    A4       3    D3       0
 H                    5    B6       1    A5       3    D4       0
 H                    5    B7       1    A6       3    D5       0
 H                    6    B8       5    A7       1    D6       0
 H                    6    B9       5    A8       1    D7       0
       Variables:
  B1                    1.35431                  
  B2                    1.19608                  
  B3                    0.96191                  
  B4                    1.52269                  
  B5                    1.44073                  
  B6                    1.09261                  
  B7                    1.09261                  
  B8                    1.01113                  
  B9                    1.01113                  
  A1                  120.26189                  
  A2                  110.63119                  
  A3                  124.62553                  
  A4                  115.35662                  
  A5                  107.80356                  
  A6                  107.80356                  
  A7                  110.22995                  
  A8                  110.22995                  
  D1                  180.                       
  D2                  180.                       
  D3                    0.                       
  D4                 -122.62433                  
  D5                  122.62433                  
  D6                  -58.35404                  
  D7                   58.35404                  
 
 ITRead=  0  0  0  0  0  0  0  0  0  0
 MicOpt= -1 -1 -1 -1 -1 -1 -1 -1 -1 -1
 NAtoms=     10 NQM=       10 NQMF=       0 NMMI=      0 NMMIF=      0
                NMic=       0 NMicF=      0.
                    Isotopes and Nuclear Properties:
 (Nuclear quadrupole moments (NQMom) in fm**2, nuclear magnetic moments (NMagM)
  in nuclear magnetons)

  Atom         1           2           3           4           5           6           7           8           9          10
 IAtWgt=          12          16          16           1          12          14           1           1           1           1
 AtmWgt=  12.0000000  15.9949146  15.9949146   1.0078250  12.0000000  14.0030740   1.0078250   1.0078250   1.0078250   1.0078250
 NucSpn=           0           0           0           1           0           2           1           1           1           1
 AtZEff=  -0.0000000  -0.0000000  -0.0000000  -0.0000000  -0.0000000  -0.0000000  -0.0000000  -0.0000000  -0.0000000  -0.0000000
 NQMom=    0.0000000   0.0000000   0.0000000   0.0000000   0.0000000   2.0440000   0.0000000   0.0000000   0.0000000   0.0000000
 NMagM=    0.0000000   0.0000000   0.0000000   2.7928460   0.0000000   0.4037610   2.7928460   2.7928460   2.7928460   2.7928460
 AtZNuc=   6.0000000   8.0000000   8.0000000   1.0000000   6.0000000   7.0000000   1.0000000   1.0000000   1.0000000   1.0000000
 Leave Link  101 at Sat Jan 16 09:34:40 2021, MaxMem= 13421772800 cpu:               2.1 elap:               0.2
 (Enter /data2/software/Gaussian/g16_c01-gpu/g16/l202.exe)
                          Input orientation:                          
 ---------------------------------------------------------------------
 Center     Atomic      Atomic             Coordinates (Angstroms)
 Number     Number       Type             X           Y           Z
 ---------------------------------------------------------------------
      1          6           0        0.000000    0.000000    0.000000
      2          8           0        0.000000    0.000000    1.354310
      3          8           0        1.033091    0.000000   -0.602768
      4          1           0       -0.900217    0.000000    1.693239
      5          6           0       -1.378759    0.000000   -0.646227
      6          7           0       -1.384895    0.000000   -2.086944
      7          1           0       -1.919274    0.876153   -0.280172
      8          1           0       -1.919274   -0.876153   -0.280172
      9          1           0       -0.888606    0.807682   -2.438698
     10          1           0       -0.888606   -0.807682   -2.438698
 ---------------------------------------------------------------------
                    Distance matrix (angstroms):
                    1          2          3          4          5
     1  C    0.000000
     2  O    1.354310   0.000000
     3  O    1.196080   2.213015   0.000000
     4  H    1.917667   0.961906   3.001554   0.000000
     5  C    1.522690   2.429634   2.412242   2.387907   0.000000
     6  N    2.504650   3.709469   2.837153   3.811128   1.440730
     7  H    2.128322   2.668855   3.096477   2.387566   1.092610
     8  H    2.128322   2.668855   3.096477   2.387566   1.092610
     9  H    2.718312   3.978553   2.777753   4.210153   2.026216
    10  H    2.718312   3.978553   2.777753   4.210153   2.026216
                    6          7          8          9         10
     6  N    0.000000
     7  H    2.077890   0.000000
     8  H    2.077890   1.752306   0.000000
     9  H    1.011130   2.392948   2.925203   0.000000
    10  H    1.011130   2.925203   2.392948   1.615364   0.000000
 Stoichiometry    C2H5NO2
 Framework group  CS[SG(C2HNO2),X(H4)]
 Deg. of freedom    15
 Full point group                 CS      NOp   2
 Largest Abelian subgroup         CS      NOp   2
 Largest concise Abelian subgroup CS      NOp   2
                         Standard orientation:                         
 ---------------------------------------------------------------------
 Center     Atomic      Atomic             Coordinates (Angstroms)
 Number     Number       Type             X           Y           Z
 ---------------------------------------------------------------------
      1          6           0        0.000000    0.573396   -0.000000
      2          8           0        0.957640    1.531040   -0.000000
      3          8           0       -1.156728    0.877678   -0.000000
      4          1           0        1.833849    1.134152   -0.000000
      5          6           0        0.517981   -0.858483    0.000000
      6          7           0       -0.496418   -1.881566    0.000000
      7          1           0        1.159024   -0.981844    0.876153
      8          1           0        1.159024   -0.981844   -0.876153
      9          1           0       -1.096075   -1.779366    0.807682
     10          1           0       -1.096075   -1.779366   -0.807682
 ---------------------------------------------------------------------
 Rotational constants (GHZ):          10.2385392           3.9139580           2.9253534
 Leave Link  202 at Sat Jan 16 09:34:40 2021, MaxMem= 13421772800 cpu:               0.9 elap:               0.1
 (Enter /data2/software/Gaussian/g16_c01-gpu/g16/l301.exe)
 Standard basis: Jun-CC-pVTZ (5D, 7F)
 Ernie: Thresh=  0.10000D-02 Tol=  0.10000D-05 Strict=F.
 Ernie:  15 primitive shells out of 185 were deleted.
 There are   196 symmetry adapted cartesian basis functions of A'  symmetry.
 There are   104 symmetry adapted cartesian basis functions of A"  symmetry.
 There are   168 symmetry adapted basis functions of A'  symmetry.
 There are    97 symmetry adapted basis functions of A"  symmetry.
   265 basis functions,   395 primitive gaussians,   300 cartesian basis functions
    20 alpha electrons       20 beta electrons
       nuclear repulsion energy       179.6626220275 Hartrees.
 IExCor=    0 DFT=F Ex=HF Corr=None ExCW=0 ScaHFX=  1.000000
 ScaDFX=  1.000000  1.000000  1.000000  1.000000 ScalE2=  1.000000  1.000000
 IRadAn=      5 IRanWt=     -1 IRanGd=            0 ICorTp=0 IEmpDi=  4
 NAtoms=   10 NActive=   10 NUniq=    8 SFac= 1.56D+00 NAtFMM=   60 NAOKFM=F Big=F
 Integral buffers will be    131072 words long.
 Raffenetti 1 integral format.
 Two-electron integral symmetry is turned on.
 Leave Link  301 at Sat Jan 16 09:34:41 2021, MaxMem= 13421772800 cpu:               2.3 elap:               0.2
 (Enter /data2/software/Gaussian/g16_c01-gpu/g16/l302.exe)
 NPDir=0 NMtPBC=     1 NCelOv=     1 NCel=       1 NClECP=     1 NCelD=      1
         NCelK=      1 NCelE2=     1 NClLst=     1 CellRange=     0.0.
 One-electron integrals computed using PRISM.
 One-electron integral symmetry used in STVInt
 NBasis=   265 RedAO= T EigKep=  4.95D-05  NBF=   168    97
 NBsUse=   265 1.00D-06 EigRej= -1.00D+00 NBFU=   168    97
 Leave Link  302 at Sat Jan 16 09:34:41 2021, MaxMem= 13421772800 cpu:               9.0 elap:               0.7
 (Enter /data2/software/Gaussian/g16_c01-gpu/g16/l303.exe)
 DipDrv:  MaxL=1.
 Leave Link  303 at Sat Jan 16 09:34:41 2021, MaxMem= 13421772800 cpu:               0.8 elap:               0.1
 (Enter /data2/software/Gaussian/g16_c01-gpu/g16/l401.exe)
 ExpMin= 3.57D-02 ExpMax= 1.53D+04 ExpMxC= 5.22D+02 IAcc=3 IRadAn=         5 AccDes= 0.00D+00
 Harris functional with IExCor=  205 and IRadAn=       5 diagonalized for initial guess.
 HarFok:  IExCor=  205 AccDes= 0.00D+00 IRadAn=         5 IDoV= 1 UseB2=F ITyADJ=14
 ICtDFT=  3500011 ScaDFX=  1.000000  1.000000  1.000000  1.000000
 FoFCou: FMM=F IPFlag=           0 FMFlag=      100000 FMFlg1=           0
         NFxFlg=           0 DoJE=T BraDBF=F KetDBF=T FulRan=T
         wScrn=  0.000000 ICntrl=       500 IOpCl=  0 I1Cent=   200000004 NGrid=           0
         NMat0=    1 NMatS0=      1 NMatT0=    0 NMatD0=    1 NMtDS0=    0 NMtDT0=    0
 Petite list used in FoFCou.
 Harris En= -283.226289241800    
 JPrj=0 DoOrth=F DoCkMO=F.
 Initial guess orbital symmetries:
       Occupied  (A') (A') (A') (A') (A') (A') (A') (A') (A') (A')
                 (A') (A") (A') (A') (A") (A') (A") (A") (A') (A')
       Virtual   (A") (A') (A') (A") (A') (A') (A') (A") (A') (A")
                 (A') (A') (A') (A") (A') (A') (A') (A") (A") (A')
                 (A') (A') (A') (A") (A') (A') (A") (A') (A') (A")
                 (A') (A') (A") (A') (A') (A") (A') (A') (A") (A')
                 (A') (A') (A") (A") (A') (A') (A") (A') (A') (A')
                 (A") (A') (A') (A') (A") (A') (A") (A') (A") (A')
                 (A") (A') (A") (A') (A") (A') (A') (A') (A") (A')
                 (A') (A") (A') (A") (A') (A") (A') (A') (A") (A")
                 (A') (A") (A') (A') (A") (A') (A") (A') (A') (A")
                 (A') (A") (A') (A") (A') (A') (A') (A') (A") (A')
                 (A') (A') (A') (A') (A") (A") (A') (A') (A') (A")
                 (A') (A") (A') (A") (A") (A') (A') (A') (A") (A')
                 (A') (A') (A") (A') (A") (A') (A') (A") (A') (A')
                 (A') (A") (A") (A") (A') (A') (A") (A') (A') (A")
                 (A') (A") (A") (A') (A") (A') (A") (A') (A") (A')
                 (A") (A") (A') (A') (A") (A") (A') (A') (A") (A')
                 (A") (A') (A") (A') (A') (A') (A") (A') (A") (A')
                 (A') (A") (A") (A') (A') (A") (A') (A') (A") (A')
                 (A") (A') (A") (A') (A") (A') (A') (A") (A') (A')
                 (A') (A") (A') (A') (A") (A') (A") (A') (A') (A")
                 (A') (A') (A") (A") (A') (A') (A') (A") (A') (A')
                 (A') (A") (A") (A') (A') (A') (A") (A") (A') (A")
                 (A') (A") (A') (A") (A') (A") (A') (A") (A") (A')
                 (A") (A') (A") (A') (A') (A') (A") (A') (A') (A')
                 (A') (A') (A') (A') (A')
 The electronic state of the initial guess is 1-A'.
 Leave Link  401 at Sat Jan 16 09:34:42 2021, MaxMem= 13421772800 cpu:               9.1 elap:               0.6
 (Enter /data2/software/Gaussian/g16_c01-gpu/g16/l502.exe)
 Keep R1 ints in memory in symmetry-blocked form, NReq=933528469.
 FoFCou: FMM=F IPFlag=           0 FMFlag=           0 FMFlg1=           0
         NFxFlg=           0 DoJE=F BraDBF=F KetDBF=F FulRan=T
         wScrn=  0.000000 ICntrl=       600 IOpCl=  0 I1Cent=           0 NGrid=           0
         NMat0=    1 NMatS0=  35245 NMatT0=    0 NMatD0=    1 NMtDS0=    0 NMtDT0=    0
 Petite list used in FoFCou.
 Closed shell SCF:
 Using DIIS extrapolation, IDIIS=  1040.
 NGot= 13421772800 LenX= 13109181140 LenY= 13109090699
 Requested convergence on RMS density matrix=1.00D-08 within 128 cycles.
 Requested convergence on MAX density matrix=1.00D-06.
 Requested convergence on             energy=1.00D-06.
 No special actions if energy rises.

 Cycle   1  Pass 1  IDiag  1:
 E= -282.699377924669    
 DIIS: error= 2.91D-02 at cycle   1 NSaved=   1.
 NSaved= 1 IEnMin= 1 EnMin= -282.699377924669     IErMin= 1 ErrMin= 2.91D-02
 ErrMax= 2.91D-02  0.00D+00 EMaxC= 1.00D-01 BMatC= 5.87D-01 BMatP= 5.87D-01
 IDIUse=3 WtCom= 7.09D-01 WtEn= 2.91D-01
 Coeff-Com:  0.100D+01
 Coeff-En:   0.100D+01
 Coeff:      0.100D+01
 Gap=     0.398 Goal=   None    Shift=    0.000
 GapD=    0.398 DampG=1.000 DampE=0.500 DampFc=0.5000 IDamp=-1.
 Damping current iteration by 5.00D-01
 RMSDP=1.69D-03 MaxDP=4.70D-02              OVMax= 1.32D-01

 Cycle   2  Pass 1  IDiag  1:
 E= -282.826365190050     Delta-E=       -0.126987265382 Rises=F Damp=T
 DIIS: error= 1.43D-02 at cycle   2 NSaved=   2.
 NSaved= 2 IEnMin= 2 EnMin= -282.826365190050     IErMin= 2 ErrMin= 1.43D-02
 ErrMax= 1.43D-02  0.00D+00 EMaxC= 1.00D-01 BMatC= 1.18D-01 BMatP= 5.87D-01
 IDIUse=3 WtCom= 8.57D-01 WtEn= 1.43D-01
 Coeff-Com: -0.561D+00 0.156D+01
 Coeff-En:   0.000D+00 0.100D+01
 Coeff:     -0.481D+00 0.148D+01
 Gap=     0.472 Goal=   None    Shift=    0.000
 RMSDP=6.76D-04 MaxDP=2.96D-02 DE=-1.27D-01 OVMax= 5.11D-02

 Cycle   3  Pass 1  IDiag  1:
 E= -282.938661306694     Delta-E=       -0.112296116643 Rises=F Damp=F
 DIIS: error= 4.39D-03 at cycle   3 NSaved=   3.
 NSaved= 3 IEnMin= 3 EnMin= -282.938661306694     IErMin= 3 ErrMin= 4.39D-03
 ErrMax= 4.39D-03  0.00D+00 EMaxC= 1.00D-01 BMatC= 5.98D-03 BMatP= 1.18D-01
 IDIUse=3 WtCom= 9.56D-01 WtEn= 4.39D-02
 Coeff-Com: -0.186D+00 0.330D+00 0.856D+00
 Coeff-En:   0.000D+00 0.000D+00 0.100D+01
 Coeff:     -0.177D+00 0.315D+00 0.862D+00
 Gap=     0.462 Goal=   None    Shift=    0.000
 RMSDP=1.70D-04 MaxDP=7.25D-03 DE=-1.12D-01 OVMax= 2.45D-02

 Cycle   4  Pass 1  IDiag  1:
 E= -282.942559349028     Delta-E=       -0.003898042334 Rises=F Damp=F
 DIIS: error= 1.22D-03 at cycle   4 NSaved=   4.
 NSaved= 4 IEnMin= 4 EnMin= -282.942559349028     IErMin= 4 ErrMin= 1.22D-03
 ErrMax= 1.22D-03  0.00D+00 EMaxC= 1.00D-01 BMatC= 4.35D-04 BMatP= 5.98D-03
 IDIUse=3 WtCom= 9.88D-01 WtEn= 1.22D-02
 Coeff-Com: -0.418D-01 0.612D-01 0.280D+00 0.701D+00
 Coeff-En:   0.000D+00 0.000D+00 0.000D+00 0.100D+01
 Coeff:     -0.413D-01 0.604D-01 0.276D+00 0.704D+00
 Gap=     0.457 Goal=   None    Shift=    0.000
 RMSDP=4.46D-05 MaxDP=1.55D-03 DE=-3.90D-03 OVMax= 5.05D-03

 Cycle   5  Pass 1  IDiag  1:
 E= -282.942932132971     Delta-E=       -0.000372783943 Rises=F Damp=F
 DIIS: error= 3.99D-04 at cycle   5 NSaved=   5.
 NSaved= 5 IEnMin= 5 EnMin= -282.942932132971     IErMin= 5 ErrMin= 3.99D-04
 ErrMax= 3.99D-04  0.00D+00 EMaxC= 1.00D-01 BMatC= 2.59D-05 BMatP= 4.35D-04
 IDIUse=3 WtCom= 9.96D-01 WtEn= 3.99D-03
 Coeff-Com:  0.187D-01-0.330D-01-0.951D-01-0.162D-01 0.113D+01
 Coeff-En:   0.000D+00 0.000D+00 0.000D+00 0.000D+00 0.100D+01
 Coeff:      0.187D-01-0.329D-01-0.947D-01-0.162D-01 0.113D+01
 Gap=     0.458 Goal=   None    Shift=    0.000
 RMSDP=2.69D-05 MaxDP=9.47D-04 DE=-3.73D-04 OVMax= 3.93D-03

 Cycle   6  Pass 1  IDiag  1:
 E= -282.942988145250     Delta-E=       -0.000056012279 Rises=F Damp=F
 DIIS: error= 1.19D-04 at cycle   6 NSaved=   6.
 NSaved= 6 IEnMin= 6 EnMin= -282.942988145250     IErMin= 6 ErrMin= 1.19D-04
 ErrMax= 1.19D-04  0.00D+00 EMaxC= 1.00D-01 BMatC= 4.33D-06 BMatP= 2.59D-05
 IDIUse=3 WtCom= 9.99D-01 WtEn= 1.19D-03
 Coeff-Com:  0.869D-02-0.142D-01-0.498D-01-0.879D-01 0.239D+00 0.904D+00
 Coeff-En:   0.000D+00 0.000D+00 0.000D+00 0.000D+00 0.000D+00 0.100D+01
 Coeff:      0.868D-02-0.141D-01-0.498D-01-0.878D-01 0.239D+00 0.904D+00
 Gap=     0.458 Goal=   None    Shift=    0.000
 RMSDP=1.00D-05 MaxDP=2.74D-04 DE=-5.60D-05 OVMax= 1.14D-03

 Cycle   7  Pass 1  IDiag  1:
 E= -282.942995983049     Delta-E=       -0.000007837799 Rises=F Damp=F
 DIIS: error= 4.12D-05 at cycle   7 NSaved=   7.
 NSaved= 7 IEnMin= 7 EnMin= -282.942995983049     IErMin= 7 ErrMin= 4.12D-05
 ErrMax= 4.12D-05  0.00D+00 EMaxC= 1.00D-01 BMatC= 5.16D-07 BMatP= 4.33D-06
 IDIUse=1 WtCom= 1.00D+00 WtEn= 0.00D+00
 Coeff-Com: -0.222D-02 0.390D-02 0.146D-01-0.416D-02-0.131D+00-0.300D-01
 Coeff-Com:  0.115D+01
 Coeff:     -0.222D-02 0.390D-02 0.146D-01-0.416D-02-0.131D+00-0.300D-01
 Coeff:      0.115D+01
 Gap=     0.458 Goal=   None    Shift=    0.000
 RMSDP=4.06D-06 MaxDP=1.54D-04 DE=-7.84D-06 OVMax= 7.53D-04

 Cycle   8  Pass 1  IDiag  1:
 E= -282.942997378482     Delta-E=       -0.000001395433 Rises=F Damp=F
 DIIS: error= 1.74D-05 at cycle   8 NSaved=   8.
 NSaved= 8 IEnMin= 8 EnMin= -282.942997378482     IErMin= 8 ErrMin= 1.74D-05
 ErrMax= 1.74D-05  0.00D+00 EMaxC= 1.00D-01 BMatC= 8.03D-08 BMatP= 5.16D-07
 IDIUse=1 WtCom= 1.00D+00 WtEn= 0.00D+00
 Coeff-Com: -0.105D-02 0.169D-02 0.683D-02 0.720D-02-0.225D-01-0.119D+00
 Coeff-Com: -0.488D-01 0.118D+01
 Coeff:     -0.105D-02 0.169D-02 0.683D-02 0.720D-02-0.225D-01-0.119D+00
 Coeff:     -0.488D-01 0.118D+01
 Gap=     0.458 Goal=   None    Shift=    0.000
 RMSDP=1.70D-06 MaxDP=6.63D-05 DE=-1.40D-06 OVMax= 2.99D-04

 Cycle   9  Pass 1  IDiag  1:
 E= -282.942997586844     Delta-E=       -0.000000208362 Rises=F Damp=F
 DIIS: error= 4.55D-06 at cycle   9 NSaved=   9.
 NSaved= 9 IEnMin= 9 EnMin= -282.942997586844     IErMin= 9 ErrMin= 4.55D-06
 ErrMax= 4.55D-06  0.00D+00 EMaxC= 1.00D-01 BMatC= 1.03D-08 BMatP= 8.03D-08
 IDIUse=1 WtCom= 1.00D+00 WtEn= 0.00D+00
 Coeff-Com:  0.580D-04-0.144D-03-0.248D-03 0.132D-02 0.134D-01-0.225D-01
 Coeff-Com: -0.156D+00 0.238D+00 0.927D+00
 Coeff:      0.580D-04-0.144D-03-0.248D-03 0.132D-02 0.134D-01-0.225D-01
 Coeff:     -0.156D+00 0.238D+00 0.927D+00
 Gap=     0.458 Goal=   None    Shift=    0.000
 RMSDP=5.00D-07 MaxDP=1.94D-05 DE=-2.08D-07 OVMax= 8.74D-05

 Cycle  10  Pass 1  IDiag  1:
 E= -282.942997607559     Delta-E=       -0.000000020715 Rises=F Damp=F
 DIIS: error= 1.70D-06 at cycle  10 NSaved=  10.
 NSaved=10 IEnMin=10 EnMin= -282.942997607559     IErMin=10 ErrMin= 1.70D-06
 ErrMax= 1.70D-06  0.00D+00 EMaxC= 1.00D-01 BMatC= 9.24D-10 BMatP= 1.03D-08
 IDIUse=1 WtCom= 1.00D+00 WtEn= 0.00D+00
 Coeff-Com:  0.158D-03-0.256D-03-0.957D-03-0.144D-02 0.342D-02 0.175D-01
 Coeff-Com:  0.161D-01-0.180D+00-0.493D-01 0.119D+01
 Coeff:      0.158D-03-0.256D-03-0.957D-03-0.144D-02 0.342D-02 0.175D-01
 Coeff:      0.161D-01-0.180D+00-0.493D-01 0.119D+01
 Gap=     0.458 Goal=   None    Shift=    0.000
 RMSDP=1.88D-07 MaxDP=7.89D-06 DE=-2.07D-08 OVMax= 2.73D-05

 Cycle  11  Pass 1  IDiag  1:
 E= -282.942997609926     Delta-E=       -0.000000002367 Rises=F Damp=F
 DIIS: error= 3.61D-07 at cycle  11 NSaved=  11.
 NSaved=11 IEnMin=11 EnMin= -282.942997609926     IErMin=11 ErrMin= 3.61D-07
 ErrMax= 3.61D-07  0.00D+00 EMaxC= 1.00D-01 BMatC= 4.95D-11 BMatP= 9.24D-10
 IDIUse=1 WtCom= 1.00D+00 WtEn= 0.00D+00
 Coeff-Com: -0.738D-05 0.142D-04 0.792D-04-0.103D-04-0.777D-03-0.238D-03
 Coeff-Com:  0.768D-02 0.800D-03-0.545D-01-0.992D-01 0.115D+01
 Coeff:     -0.738D-05 0.142D-04 0.792D-04-0.103D-04-0.777D-03-0.238D-03
 Coeff:      0.768D-02 0.800D-03-0.545D-01-0.992D-01 0.115D+01
 Gap=     0.458 Goal=   None    Shift=    0.000
 RMSDP=4.35D-08 MaxDP=1.37D-06 DE=-2.37D-09 OVMax= 4.07D-06

 Cycle  12  Pass 1  IDiag  1:
 E= -282.942997610048     Delta-E=       -0.000000000122 Rises=F Damp=F
 DIIS: error= 1.35D-07 at cycle  12 NSaved=  12.
 NSaved=12 IEnMin=12 EnMin= -282.942997610048     IErMin=12 ErrMin= 1.35D-07
 ErrMax= 1.35D-07  0.00D+00 EMaxC= 1.00D-01 BMatC= 3.60D-12 BMatP= 4.95D-11
 IDIUse=1 WtCom= 1.00D+00 WtEn= 0.00D+00
 Coeff-Com: -0.118D-04 0.190D-04 0.794D-04 0.107D-03-0.284D-03-0.141D-02
 Coeff-Com: -0.153D-02 0.159D-01 0.321D-02-0.102D+00 0.235D-01 0.106D+01
 Coeff:     -0.118D-04 0.190D-04 0.794D-04 0.107D-03-0.284D-03-0.141D-02
 Coeff:     -0.153D-02 0.159D-01 0.321D-02-0.102D+00 0.235D-01 0.106D+01
 Gap=     0.458 Goal=   None    Shift=    0.000
 RMSDP=1.22D-08 MaxDP=4.39D-07 DE=-1.22D-10 OVMax= 1.01D-06

 Cycle  13  Pass 1  IDiag  1:
 E= -282.942997610057     Delta-E=       -0.000000000010 Rises=F Damp=F
 DIIS: error= 3.63D-08 at cycle  13 NSaved=  13.
 NSaved=13 IEnMin=13 EnMin= -282.942997610057     IErMin=13 ErrMin= 3.63D-08
 ErrMax= 3.63D-08  0.00D+00 EMaxC= 1.00D-01 BMatC= 2.91D-13 BMatP= 3.60D-12
 IDIUse=1 WtCom= 1.00D+00 WtEn= 0.00D+00
 Coeff-Com:  0.121D-05-0.222D-05-0.954D-05-0.579D-05 0.783D-04 0.902D-04
 Coeff-Com: -0.752D-03-0.284D-03 0.464D-02 0.883D-02-0.963D-01 0.627D-02
 Coeff-Com:  0.108D+01
 Coeff:      0.121D-05-0.222D-05-0.954D-05-0.579D-05 0.783D-04 0.902D-04
 Coeff:     -0.752D-03-0.284D-03 0.464D-02 0.883D-02-0.963D-01 0.627D-02
 Coeff:      0.108D+01
 Gap=     0.458 Goal=   None    Shift=    0.000
 RMSDP=3.63D-09 MaxDP=8.88D-08 DE=-9.66D-12 OVMax= 2.83D-07

 SCF Done:  E(RHF) =  -282.942997610     A.U. after   13 cycles
            NFock= 13  Conv=0.36D-08     -V/T= 2.0015
 KE= 2.825283685451D+02 PE=-1.025444508110D+03 EE= 2.803105199272D+02
 Leave Link  502 at Sat Jan 16 09:34:53 2021, MaxMem= 13421772800 cpu:             110.7 elap:              10.5
 (Enter /data2/software/Gaussian/g16_c01-gpu/g16/l801.exe)
 Windowed orbitals will be sorted by symmetry type.
 ExpMin= 3.57D-02 ExpMax= 1.53D+04 ExpMxC= 5.22D+02 IAcc=3 IRadAn=         5 AccDes= 0.00D+00
 HarFok:  IExCor=  205 AccDes= 0.00D+00 IRadAn=         5 IDoV=-2 UseB2=F ITyADJ=14
 ICtDFT= 12500011 ScaDFX=  1.000000  1.000000  1.000000  1.000000
 DSYEVD-2 returned Info=          79 IAlg= 4 N=    39 NDim=    39 NE2=   344142763 trying  DSYEV.
 Largest valence mixing into a core orbital is  2.05D-04
 Largest core mixing into a valence orbital is  3.06D-05
 Range of M.O.s used for correlation:     6   265
 NBasis=   265 NAE=    20 NBE=    20 NFC=     5 NFV=     0
 NROrb=    260 NOA=    15 NOB=    15 NVA=   245 NVB=   245

 **** Warning!!: The largest alpha MO coefficient is  0.32982971D+02

 Leave Link  801 at Sat Jan 16 09:34:53 2021, MaxMem= 13421772800 cpu:               1.6 elap:               0.1
 (Enter /data2/software/Gaussian/g16_c01-gpu/g16/l804.exe)
 Closed-shell transformation, MDV= 13421772800 ITran=4 ISComp=2.
 Unit  1 TFree=       2333239 TCopy=       1236586.
 Semi-Direct transformation.
 ModeAB=           4 MOrb=            15 LenV=   13419945827
 LASXX=     63877396 LTotXX=    63877396 LenRXX=   128545993
 LTotAB=    64668597 MaxLAS=   144495000 LenRXY=           0
 NonZer=   192423389 LenScr=   289112064 LnRSAI=   144495000
 LnScr1=   217284608 LExtra=           0 Total=    779437665
 MaxDsk=          -1 SrtSym=           T ITran=            4
 DoSDTr:  NPSUse= 16
 JobTyp=0 Pass  1:  I=   1 to  15.
 (rs|ai) integrals will be sorted in core.
 Complete sort for first half transformation.
 First half transformation complete.
 Begin second half transformation for I=  10.
 Complete sort for second half transformation.
 Second half transformation complete.
 Spin components of T(2) and E(2):
     alpha-alpha T2 =       0.3607871581D-01 E2=     -0.1279520937D+00
     alpha-beta  T2 =       0.2002264317D+00 E2=     -0.7616550011D+00
     beta-beta   T2 =       0.3607871581D-01 E2=     -0.1279520937D+00
 ANorm=    0.1127999939D+01
 E2 =    -0.1017559188D+01 EUMP2 =    -0.28396055679850D+03
 Leave Link  804 at Sat Jan 16 09:35:24 2021, MaxMem= 13421772800 cpu:             471.0 elap:              30.8
 (Enter /data2/software/Gaussian/g16_c01-gpu/g16/l913.exe)
 CIDS:  MDV= 13421772800.
 Frozen-core window:  NFC=   5 NFV=   0.
 IFCWin=0 IBDFC=1 NFBD=     0     0 NFCmp=     0     0 NFFFC=     0     0
 Using DD3R+UMP44R for 1st iteration.
 Using DD4RQ for 2nd and later iterations.
 Keep R2 and R3 ints in memory in symmetry-blocked form, NReq=937075696.
 FoFCou: FMM=F IPFlag=           0 FMFlag=           0 FMFlg1=           0
         NFxFlg=           0 DoJE=F BraDBF=F KetDBF=F FulRan=T
         wScrn=  0.000000 ICntrl=       600 IOpCl=  0 I1Cent=           0 NGrid=           0
         NMat0=    1 NMatS0=  35245 NMatT0=    0 NMatD0=    1 NMtDS0=    0 NMtDT0=    0
 Petite list used in FoFCou.
 CIDS: In Core Option IDoMem=           1.
 CCSD(T)
 =======
 Iterations=  50 Convergence= 0.100D-06
 Produce multiple copies of IABC intergrals
 Iteration Nr.   1
 **********************
 DD1Dir will call FoFMem   1 times, MxPair=       240
 NAB=   120 NAA=     0 NBB=     0.
 MP4(R+Q)=  0.22388028D-01
 Maximum subspace dimension=  5
 A-vector RMS=  2.1826703D-03 Max=  2.7669023D-02 conv= 1.00D-05.
 RLE energy=       -1.0058065870
 E3=       -0.11046020D-01        EUMP3=      -0.28397160282D+03
 E4(DQ)=    0.17004273D-02        UMP4(DQ)=   -0.28396990239D+03
 E4(SDQ)=  -0.97152993D-02        UMP4(SDQ)=  -0.28398131812D+03
 VARIATIONAL ENERGIES WITH THE FIRST-ORDER WAVEFUNCTION:
 DE(Corr)=  -1.0056696     E(Corr)=     -283.94866716    
 NORM(A)=   0.11278821D+01
 Iteration Nr.   2
 **********************
 DD1Dir will call FoFMem   1 times, MxPair=       240
 NAB=   120 NAA=     0 NBB=     0.
 A-vector RMS=  3.2803812D-04 Max=  8.3335062D-03 conv= 1.00D-05.
 RLE energy=       -1.0334720300
 DE(Corr)=  -1.0330993     E(CORR)=     -283.97609689     Delta=-2.74D-02
 NORM(A)=   0.11373993D+01
 Iteration Nr.   3
 **********************
 DD1Dir will call FoFMem   1 times, MxPair=       240
 NAB=   120 NAA=     0 NBB=     0.
 A-vector RMS=  4.1237354D-04 Max=  6.2774767D-03 conv= 1.00D-05.
 RLE energy=       -1.0349970460
 DE(Corr)=  -1.0326537     E(CORR)=     -283.97565130     Delta= 4.46D-04
 NORM(A)=   0.11399507D+01
 Iteration Nr.   4
 **********************
 DD1Dir will call FoFMem   1 times, MxPair=       240
 NAB=   120 NAA=     0 NBB=     0.
 A-vector RMS=  6.9352221D-05 Max=  1.1413225D-03 conv= 1.00D-05.
 RLE energy=       -1.0351620972
 DE(Corr)=  -1.0349776     E(CORR)=     -283.97797518     Delta=-2.32D-03
 NORM(A)=   0.11407088D+01
 Iteration Nr.   5
 **********************
 DD1Dir will call FoFMem   1 times, MxPair=       240
 NAB=   120 NAA=     0 NBB=     0.
 A-vector RMS=  4.3746584D-05 Max=  5.3612686D-04 conv= 1.00D-05.
 RLE energy=       -1.0352706751
 DE(Corr)=  -1.0352296     E(CORR)=     -283.97822716     Delta=-2.52D-04
 NORM(A)=   0.11409497D+01
 Iteration Nr.   6
 **********************
 DD1Dir will call FoFMem   1 times, MxPair=       240
 NAB=   120 NAA=     0 NBB=     0.
 A-vector RMS=  1.2328116D-05 Max=  2.0144557D-04 conv= 1.00D-05.
 RLE energy=       -1.0352690157
 DE(Corr)=  -1.0352523     E(CORR)=     -283.97824987     Delta=-2.27D-05
 NORM(A)=   0.11409851D+01
 Iteration Nr.   7
 **********************
 DD1Dir will call FoFMem   1 times, MxPair=       240
 NAB=   120 NAA=     0 NBB=     0.
 A-vector RMS=  5.9164409D-06 Max=  6.6789752D-05 conv= 1.00D-05.
 RLE energy=       -1.0352389345
 DE(Corr)=  -1.0352535     E(CORR)=     -283.97825107     Delta=-1.20D-06
 NORM(A)=   0.11409846D+01
 Iteration Nr.   8
 **********************
 DD1Dir will call FoFMem   1 times, MxPair=       240
 NAB=   120 NAA=     0 NBB=     0.
 A-vector RMS=  1.5426918D-06 Max=  2.3837261D-05 conv= 1.00D-05.
 RLE energy=       -1.0352522975
 DE(Corr)=  -1.0352533     E(CORR)=     -283.97825093     Delta= 1.38D-07
 NORM(A)=   0.11409898D+01
 Iteration Nr.   9
 **********************
 DD1Dir will call FoFMem   1 times, MxPair=       240
 NAB=   120 NAA=     0 NBB=     0.
 A-vector RMS=  6.7797525D-07 Max=  1.0426821D-05 conv= 1.00D-05.
 RLE energy=       -1.0352510537
 DE(Corr)=  -1.0352513     E(CORR)=     -283.97824892     Delta= 2.01D-06
 NORM(A)=   0.11409899D+01
 Iteration Nr.  10
 **********************
 DD1Dir will call FoFMem   1 times, MxPair=       240
 NAB=   120 NAA=     0 NBB=     0.
 A-vector RMS=  3.0490700D-07 Max=  4.5943009D-06 conv= 1.00D-05.
 RLE energy=       -1.0352522001
 DE(Corr)=  -1.0352524     E(CORR)=     -283.97825000     Delta=-1.08D-06
 NORM(A)=   0.11409903D+01
 Iteration Nr.  11
 **********************
 DD1Dir will call FoFMem   1 times, MxPair=       240
 NAB=   120 NAA=     0 NBB=     0.
 A-vector RMS=  1.3752913D-07 Max=  1.8894715D-06 conv= 1.00D-05.
 RLE energy=       -1.0352525097
 DE(Corr)=  -1.0352524     E(CORR)=     -283.97824996     Delta= 3.77D-08
 NORM(A)=   0.11409907D+01
 CI/CC converged in   11 iterations to DelEn= 3.77D-08 Conv= 1.00D-07 ErrA1= 1.38D-07 Conv= 1.00D-05
 Wavefunction amplitudes converged. E(Corr)=     -283.97824996    
 Largest amplitude= 5.27D-02
 IPart= 16 IA=   14   10.35% done.
 IPart= 11 IA=   27   20.14% done.
 IPart=  4 IA=   41   30.04% done.
 IPart=  4 IA=   57   40.56% done.
 IPart= 12 IA=   73   50.22% done.
 IPart=  9 IA=   91   60.07% done.
 IPart=  6 IA=  112   70.19% done.
 IPart=  9 IA=  137   80.31% done.
 IPart=  9 IA=  169   90.21% done.
 Time for triples=    90997.58 seconds.
 T4(CCSD)= -0.46007318D-01
 T5(CCSD)=  0.21248244D-02
 CCSD(T)= -0.28402213246D+03
 Discarding MO integrals.
 Leave Link  913 at Sat Jan 16 11:27:05 2021, MaxMem= 13421772800 cpu:           99464.4 elap:            6701.5
 (Enter /data2/software/Gaussian/g16_c01-gpu/g16/l601.exe)
 Copying SCF densities to generalized density rwf, IOpCl= 0 IROHF=0.

 **********************************************************************

            Population analysis using the SCF Density.

 **********************************************************************

 Orbital symmetries:
       Occupied  (A') (A') (A') (A') (A') (A') (A') (A') (A') (A')
                 (A') (A") (A') (A") (A') (A') (A") (A") (A') (A')
       Virtual   (A') (A') (A") (A') (A') (A") (A') (A') (A") (A')
                 (A") (A') (A') (A") (A') (A') (A') (A") (A') (A')
                 (A") (A') (A") (A') (A') (A") (A') (A') (A") (A')
                 (A") (A') (A') (A') (A") (A') (A') (A') (A") (A')
                 (A") (A') (A') (A') (A") (A') (A") (A') (A') (A')
                 (A") (A') (A') (A") (A') (A") (A') (A') (A") (A')
                 (A") (A') (A') (A") (A") (A') (A') (A') (A") (A')
                 (A') (A") (A') (A") (A') (A") (A') (A") (A') (A")
                 (A') (A") (A') (A') (A") (A") (A') (A') (A') (A")
                 (A') (A") (A') (A') (A") (A') (A') (A') (A") (A')
                 (A') (A') (A') (A') (A") (A') (A") (A') (A") (A')
                 (A') (A") (A') (A") (A') (A") (A') (A') (A") (A')
                 (A') (A") (A') (A') (A") (A') (A') (A") (A') (A')
                 (A") (A') (A") (A") (A') (A") (A') (A') (A') (A')
                 (A") (A") (A") (A") (A') (A") (A') (A") (A') (A")
                 (A') (A") (A") (A') (A') (A") (A') (A") (A') (A")
                 (A') (A') (A') (A") (A') (A") (A') (A') (A") (A")
                 (A') (A') (A") (A') (A') (A") (A') (A') (A') (A")
                 (A") (A') (A') (A") (A") (A') (A") (A') (A') (A")
                 (A') (A') (A') (A') (A") (A') (A") (A') (A') (A")
                 (A') (A") (A') (A") (A') (A') (A') (A") (A') (A')
                 (A") (A') (A") (A') (A') (A') (A") (A") (A') (A")
                 (A") (A') (A') (A") (A") (A') (A') (A") (A") (A')
                 (A") (A') (A') (A") (A') (A") (A') (A') (A') (A')
                 (A') (A') (A') (A') (A')
 The electronic state is 1-A'.
 Alpha  occ. eigenvalues --  -20.62077 -20.55239 -15.55989 -11.38695 -11.29109
 Alpha  occ. eigenvalues --   -1.46936  -1.37397  -1.20722  -0.97660  -0.83574
 Alpha  occ. eigenvalues --   -0.73960  -0.70616  -0.67308  -0.63219  -0.60829
 Alpha  occ. eigenvalues --   -0.59077  -0.54789  -0.48873  -0.47011  -0.41676
 Alpha virt. eigenvalues --    0.04147   0.05968   0.06768   0.06781   0.10146
 Alpha virt. eigenvalues --    0.10312   0.10594   0.12404   0.13103   0.16349
 Alpha virt. eigenvalues --    0.16380   0.17457   0.19152   0.19610   0.22370
 Alpha virt. eigenvalues --    0.23653   0.23808   0.24467   0.24866   0.26254
 Alpha virt. eigenvalues --    0.27607   0.28333   0.28766   0.30068   0.32733
 Alpha virt. eigenvalues --    0.35246   0.36380   0.37895   0.39077   0.39962
 Alpha virt. eigenvalues --    0.42768   0.43462   0.45447   0.47273   0.49265
 Alpha virt. eigenvalues --    0.51102   0.52207   0.54676   0.56040   0.57607
 Alpha virt. eigenvalues --    0.58852   0.59964   0.62928   0.63324   0.65301
 Alpha virt. eigenvalues --    0.66221   0.66431   0.70368   0.73557   0.73678
 Alpha virt. eigenvalues --    0.75136   0.77556   0.78932   0.79580   0.80412
 Alpha virt. eigenvalues --    0.83373   0.83939   0.85908   0.87050   0.88421
 Alpha virt. eigenvalues --    0.89960   0.91695   0.92457   0.94910   0.98566
 Alpha virt. eigenvalues --    1.00971   1.01905   1.04440   1.07386   1.08332
 Alpha virt. eigenvalues --    1.11730   1.15972   1.16638   1.17646   1.19356
 Alpha virt. eigenvalues --    1.24504   1.24959   1.26832   1.28146   1.32577
 Alpha virt. eigenvalues --    1.34825   1.35570   1.38492   1.41509   1.41920
 Alpha virt. eigenvalues --    1.46933   1.47620   1.50295   1.52921   1.53706
 Alpha virt. eigenvalues --    1.55838   1.57231   1.60551   1.64865   1.65112
 Alpha virt. eigenvalues --    1.69190   1.74324   1.76059   1.76272   1.80009
 Alpha virt. eigenvalues --    1.82602   1.87663   1.93580   2.00149   2.02955
 Alpha virt. eigenvalues --    2.08403   2.09436   2.15126   2.16981   2.17744
 Alpha virt. eigenvalues --    2.23606   2.27643   2.38245   2.41565   2.46972
 Alpha virt. eigenvalues --    2.48755   2.53346   2.59841   2.61255   2.75626
 Alpha virt. eigenvalues --    2.78392   2.86387   2.86552   2.97619   3.01990
 Alpha virt. eigenvalues --    3.11536   3.15199   3.15940   3.17350   3.23472
 Alpha virt. eigenvalues --    3.25779   3.28048   3.29403   3.34934   3.35910
 Alpha virt. eigenvalues --    3.40146   3.43944   3.47056   3.48960   3.54294
 Alpha virt. eigenvalues --    3.54365   3.54980   3.59195   3.60929   3.61491
 Alpha virt. eigenvalues --    3.65988   3.66365   3.68073   3.70166   3.76374
 Alpha virt. eigenvalues --    3.78820   3.80053   3.82280   3.84946   3.89597
 Alpha virt. eigenvalues --    3.89821   3.93177   3.93715   3.95729   3.98275
 Alpha virt. eigenvalues --    3.99564   4.08051   4.11393   4.13251   4.19850
 Alpha virt. eigenvalues --    4.24419   4.24480   4.28040   4.28367   4.28727
 Alpha virt. eigenvalues --    4.31243   4.35295   4.35851   4.40840   4.45501
 Alpha virt. eigenvalues --    4.47127   4.55590   4.55871   4.63426   4.65403
 Alpha virt. eigenvalues --    4.67298   4.69264   4.70262   4.72779   4.77316
 Alpha virt. eigenvalues --    4.83413   4.84502   4.85909   4.91245   5.06951
 Alpha virt. eigenvalues --    5.07191   5.12474   5.18423   5.24079   5.28849
 Alpha virt. eigenvalues --    5.28862   5.35783   5.37748   5.49522   5.55036
 Alpha virt. eigenvalues --    5.56608   5.60654   5.64371   5.64423   5.70099
 Alpha virt. eigenvalues --    5.74574   5.83402   5.84971   5.89002   6.02562
 Alpha virt. eigenvalues --    6.09173   6.10031   6.10761   6.15880   6.25270
 Alpha virt. eigenvalues --    6.26772   6.30871   6.43201   6.44086   6.53607
 Alpha virt. eigenvalues --    6.60916   6.64532   6.74008   6.84686   6.99457
 Alpha virt. eigenvalues --    7.03319   7.11468   7.15630   7.23773   7.26025
 Alpha virt. eigenvalues --    7.34138   7.36259   7.43732   7.43757   7.55740
 Alpha virt. eigenvalues --    7.59455   7.69294   7.73137   7.89488   8.06703
 Alpha virt. eigenvalues --   11.86633  13.79941  14.04717  14.34180  14.78759
          Condensed to atoms (all electrons):
               1          2          3          4          5          6
     1  C    4.542886   0.273709   0.513525   0.012212   0.284139  -0.015252
     2  O    0.273709   7.974974  -0.117678   0.259165  -0.055604   0.002816
     3  O    0.513525  -0.117678   8.106487   0.006555  -0.035281  -0.029335
     4  H    0.012212   0.259165   0.006555   0.522401  -0.009868  -0.000231
     5  C    0.284139  -0.055604  -0.035281  -0.009868   5.012748   0.167623
     6  N   -0.015252   0.002816  -0.029335  -0.000231   0.167623   6.744471
     7  H   -0.022839  -0.004672   0.001067  -0.000080   0.433633  -0.049206
     8  H   -0.022839  -0.004672   0.001067  -0.000080   0.433633  -0.049206
     9  H   -0.006709  -0.000118   0.002059   0.000029   0.018023   0.307367
    10  H   -0.006709  -0.000118   0.002059   0.000029   0.018023   0.307367
               7          8          9         10
     1  C   -0.022839  -0.022839  -0.006709  -0.006709
     2  O   -0.004672  -0.004672  -0.000118  -0.000118
     3  O    0.001067   0.001067   0.002059   0.002059
     4  H   -0.000080  -0.000080   0.000029   0.000029
     5  C    0.433633   0.433633   0.018023   0.018023
     6  N   -0.049206  -0.049206   0.307367   0.307367
     7  H    0.423563  -0.005234  -0.000625   0.004574
     8  H   -0.005234   0.423563   0.004574  -0.000625
     9  H   -0.000625   0.004574   0.541063  -0.032874
    10  H    0.004574  -0.000625  -0.032874   0.541063
 Mulliken charges:
               1
     1  C    0.447877
     2  O   -0.327802
     3  O   -0.450523
     4  H    0.209868
     5  C   -0.267069
     6  N   -0.386412
     7  H    0.219819
     8  H    0.219819
     9  H    0.167212
    10  H    0.167212
 Sum of Mulliken charges =  -0.00000
 Mulliken charges with hydrogens summed into heavy atoms:
               1
     1  C    0.447877
     2  O   -0.117933
     3  O   -0.450523
     5  C    0.172569
     6  N   -0.051989
 Electronic spatial extent (au):  <R**2>=            420.1848
 Charge=             -0.0000 electrons
 Dipole moment (field-independent basis, Debye):
    X=              3.0318    Y=             -1.5712    Z=             -0.0000  Tot=              3.4148
 Quadrupole moment (field-independent basis, Debye-Ang):
   XX=            -26.6458   YY=            -39.0578   ZZ=            -27.2729
   XY=              3.9660   XZ=             -0.0000   YZ=              0.0000
 Traceless Quadrupole moment (field-independent basis, Debye-Ang):
   XX=              4.3464   YY=             -8.0656   ZZ=              3.7193
   XY=              3.9660   XZ=             -0.0000   YZ=              0.0000
 Octapole moment (field-independent basis, Debye-Ang**2):
  XXX=             12.4417  YYY=             14.8550  ZZZ=              0.0000  XYY=             -2.1143
  XXY=             -1.7867  XXZ=              0.0000  XZZ=             -1.3362  YZZ=             -1.8951
  YYZ=              0.0000  XYZ=             -0.0000
 Hexadecapole moment (field-independent basis, Debye-Ang**3):
 XXXX=           -127.9681 YYYY=           -393.7928 ZZZZ=            -34.5379 XXXY=             -1.9765
 XXXZ=              0.0000 YYYX=            -19.7180 YYYZ=             -0.0000 ZZZX=              0.0000
 ZZZY=              0.0000 XXYY=            -71.0913 XXZZ=            -27.9224 YYZZ=            -55.3187
 XXYZ=              0.0000 YYXZ=              0.0000 ZZXY=             -4.9666
 N-N= 1.796626220275D+02 E-N=-1.025444506212D+03  KE= 2.825283685451D+02
 Symmetry A'   KE= 2.697535822920D+02
 Symmetry A"   KE= 1.277478625309D+01
 Leave Link  601 at Sat Jan 16 11:27:06 2021, MaxMem= 13421772800 cpu:              11.0 elap:               0.8
 (Enter /data2/software/Gaussian/g16_c01-gpu/g16/l9999.exe)
 Unable to Open any file for archive entry.
 1\1\GINC-CU06\SP\RCCSD(T)-FC\Jun-CC-pVTZ\C2H5N1O2\SHUCHONG\16-Jan-2021
 \0\\#p #p CCSD(T)/jun-cc-pvtz\\start best geom PCCP paper\\0,1\C\O,1,1
 .35431\O,1,1.19608,2,120.26189\H,2,0.961906,1,110.63119,3,180.,0\C,1,1
 .52269,3,124.62553,2,180.,0\N,5,1.44073,1,115.35662,3,0.,0\H,5,1.09261
 ,1,107.80356,3,-122.62433,0\H,5,1.09261,1,107.80356,3,122.62433,0\H,6,
 1.01113,5,110.22995,1,-58.35404,0\H,6,1.01113,5,110.22995,1,58.35404,0
 \\Version=AM64L-G16RevC.01\State=1-A'\HF=-282.9429976\MP2=-283.9605568
 \MP3=-283.9716028\MP4D=-283.9922904\MP4DQ=-283.9699024\MP4SDQ=-283.981
 3181\CCSD=-283.97825\CCSD(T)=-284.0221325\RMSD=3.629e-09\PG=CS [SG(C2H
 1N1O2),X(H4)]\\@
 The archive entry for this job was punched.


 WE HAVE LEARNED THAT NOTHING IS SIMPLE AND
 RATIONAL EXCEPT WHAT WE OURSELVES HAVE INVENTED;
 THAT GOD THINKS IN TERMS NEITHER OF EUCLID OR RIEMANN; THAT SCIENCE HAS "EXPLAINED" NOTHING;
 THAT THE MORE WE KNOW THE MORE FANTASTIC THE WORLD BECOMES
 AND THE PROFOUNDER THE SURROUNDING DARKNESS.
   --  ALDOUS HUXLEY
 Job cpu time:       1 days  3 hours 48 minutes 11.8 seconds.
 Elapsed time:       0 days  1 hours 52 minutes 26.5 seconds.
 File lengths (MBytes):  RWF=   6091 Int=      0 D2E=      0 Chk=      6 Scr=      1
 Normal termination of Gaussian 16 at Sat Jan 16 11:27:07 2021.
