 Entering Gaussian System, Link 0=g16
 Input=ttt_Best_geom_CCSDT_jun_cc-pVTZ.gjf
 Output=ttt_Best_geom_CCSDT_jun_cc-pVTZ.log
 Initial command:
 /data2/software/Gaussian/g16_from_xuruiqin/g16/l1.exe "/home/shuchong/scratch/Gau-48972.inp" -scrdir="/home/shuchong/scratch/"
 Entering Link 1 = /data2/software/Gaussian/g16_from_xuruiqin/g16/l1.exe PID=     48973.
  
 Copyright (c) 1988-2019, Gaussian, Inc.  All Rights Reserved.
  
 This is part of the Gaussian(R) 16 program.  It is based on
 the Gaussian(R) 09 system (copyright 2009, Gaussian, Inc.),
 the Gaussian(R) 03 system (copyright 2003, Gaussian, Inc.),
 the Gaussian(R) 98 system (copyright 1998, Gaussian, Inc.),
 the Gaussian(R) 94 system (copyright 1995, Gaussian, Inc.),
 the Gaussian 92(TM) system (copyright 1992, Gaussian, Inc.),
 the Gaussian 90(TM) system (copyright 1990, Gaussian, Inc.),
 the Gaussian 88(TM) system (copyright 1988, Gaussian, Inc.),
 the Gaussian 86(TM) system (copyright 1986, Carnegie Mellon
 University), and the Gaussian 82(TM) system (copyright 1983,
 Carnegie Mellon University). Gaussian is a federally registered
 trademark of Gaussian, Inc.
  
 This software contains proprietary and confidential information,
 including trade secrets, belonging to Gaussian, Inc.
  
 This software is provided under written license and may be
 used, copied, transmitted, or stored only in accord with that
 written license.
  
 The following legend is applicable only to US Government
 contracts under FAR:
  
                    RESTRICTED RIGHTS LEGEND
  
 Use, reproduction and disclosure by the US Government is
 subject to restrictions as set forth in subparagraphs (a)
 and (c) of the Commercial Computer Software - Restricted
 Rights clause in FAR 52.227-19.
  
 Gaussian, Inc.
 340 Quinnipiac St., Bldg. 40, Wallingford CT 06492
  
  
 ---------------------------------------------------------------
 Warning -- This program may not be used in any manner that
 competes with the business of Gaussian, Inc. or will provide
 assistance to any competitor of Gaussian, Inc.  The licensee
 of this program is prohibited from giving any competitor of
 Gaussian, Inc. access to this program.  By using this program,
 the user acknowledges that Gaussian, Inc. is engaged in the
 business of creating and licensing software in the field of
 computational chemistry and represents and warrants to the
 licensee that it is not a competitor of Gaussian, Inc. and that
 it will not use this program in any manner prohibited above.
 ---------------------------------------------------------------
  

 Cite this work as:
 Gaussian 16, Revision C.01,
 M. J. Frisch, G. W. Trucks, H. B. Schlegel, G. E. Scuseria, 
 M. A. Robb, J. R. Cheeseman, G. Scalmani, V. Barone, 
 G. A. Petersson, H. Nakatsuji, X. Li, M. Caricato, A. V. Marenich, 
 J. Bloino, B. G. Janesko, R. Gomperts, B. Mennucci, H. P. Hratchian, 
 J. V. Ortiz, A. F. Izmaylov, J. L. Sonnenberg, D. Williams-Young, 
 F. Ding, F. Lipparini, F. Egidi, J. Goings, B. Peng, A. Petrone, 
 T. Henderson, D. Ranasinghe, V. G. Zakrzewski, J. Gao, N. Rega, 
 G. Zheng, W. Liang, M. Hada, M. Ehara, K. Toyota, R. Fukuda, 
 J. Hasegawa, M. Ishida, T. Nakajima, Y. Honda, O. Kitao, H. Nakai, 
 T. Vreven, K. Throssell, J. A. Montgomery, Jr., J. E. Peralta, 
 F. Ogliaro, M. J. Bearpark, J. J. Heyd, E. N. Brothers, K. N. Kudin, 
 V. N. Staroverov, T. A. Keith, R. Kobayashi, J. Normand, 
 K. Raghavachari, A. P. Rendell, J. C. Burant, S. S. Iyengar, 
 J. Tomasi, M. Cossi, J. M. Millam, M. Klene, C. Adamo, R. Cammi, 
 J. W. Ochterski, R. L. Martin, K. Morokuma, O. Farkas, 
 J. B. Foresman, and D. J. Fox, Gaussian, Inc., Wallingford CT, 2019.
 
 ******************************************
 Gaussian 16:  ES64L-G16RevC.01  3-Jul-2019
                18-Jan-2021 
 ******************************************
 %chk=ttt_Best_geom_CCSDT_jun_cc-pVTZ.chk
 %nprocshared=28
 Will use up to   28 processors via shared memory.
 %mem=100GB
 ----------------------
 #p CCSD(T)/jun-cc-pvtz
 ----------------------
 1/38=1,172=1/1;
 2/12=2,17=6,18=5,40=1/2;
 3/5=16,6=1,7=60,11=9,25=1,30=1/1,2,3;
 4//1;
 5/5=2,38=5/2;
 8/6=4,9=120000,10=1/1,4;
 9/5=7,14=2/13;
 6/7=2,8=2,9=2,10=2/1;
 99/5=1,9=1/99;
 Leave Link    1 at Mon Jan 18 10:11:06 2021, MaxMem= 13421772800 cpu:               0.9 elap:               0.0
 (Enter /data2/software/Gaussian/g16_from_xuruiqin/g16/l101.exe)
 --------------------------
 start best geom PCCP paper
 --------------------------
 Symbolic Z-matrix:
 Charge =  0 Multiplicity = 1
 C
 O                    1    B1
 O                    1    B2       2    A1
 H                    2    B3       1    A2       3    D1       0
 C                    1    B4       3    A3       2    D2       0
 N                    5    B5       1    A4       3    D3       0
 H                    5    B6       1    A5       3    D4       0
 H                    5    B7       1    A6       3    D5       0
 H                    6    B8       5    A7       1    D6       0
 H                    6    B9       5    A8       1    D7       0
       Variables:
  B1                    1.3486                   
  B2                    1.2025                   
  B3                    0.9651                   
  B4                    1.5141                   
  B5                    1.442                    
  B6                    1.0905                   
  B7                    1.0905                   
  B8                    1.0109                   
  B9                    1.0109                   
  A1                  123.0718                   
  A2                  107.1011                   
  A3                  125.77                     
  A4                  115.3802                   
  A5                  107.3709                   
  A6                  107.3709                   
  A7                  110.5508                   
  A8                  110.5508                   
  D1                    0.                       
  D2                  180.                       
  D3                    0.                       
  D4                 -123.1312                   
  D5                  123.1312                   
  D6                  -58.6741                   
  D7                   58.6741                   
 
 ITRead=  0  0  0  0  0  0  0  0  0  0
 MicOpt= -1 -1 -1 -1 -1 -1 -1 -1 -1 -1
 NAtoms=     10 NQM=       10 NQMF=       0 NMMI=      0 NMMIF=      0
                NMic=       0 NMicF=      0.
                    Isotopes and Nuclear Properties:
 (Nuclear quadrupole moments (NQMom) in fm**2, nuclear magnetic moments (NMagM)
  in nuclear magnetons)

  Atom         1           2           3           4           5           6           7           8           9          10
 IAtWgt=          12          16          16           1          12          14           1           1           1           1
 AtmWgt=  12.0000000  15.9949146  15.9949146   1.0078250  12.0000000  14.0030740   1.0078250   1.0078250   1.0078250   1.0078250
 NucSpn=           0           0           0           1           0           2           1           1           1           1
 AtZEff=  -0.0000000  -0.0000000  -0.0000000  -0.0000000  -0.0000000  -0.0000000  -0.0000000  -0.0000000  -0.0000000  -0.0000000
 NQMom=    0.0000000   0.0000000   0.0000000   0.0000000   0.0000000   2.0440000   0.0000000   0.0000000   0.0000000   0.0000000
 NMagM=    0.0000000   0.0000000   0.0000000   2.7928460   0.0000000   0.4037610   2.7928460   2.7928460   2.7928460   2.7928460
 AtZNuc=   6.0000000   8.0000000   8.0000000   1.0000000   6.0000000   7.0000000   1.0000000   1.0000000   1.0000000   1.0000000
 Leave Link  101 at Mon Jan 18 10:11:06 2021, MaxMem= 13421772800 cpu:               3.1 elap:               0.1
 (Enter /data2/software/Gaussian/g16_from_xuruiqin/g16/l202.exe)
                          Input orientation:                          
 ---------------------------------------------------------------------
 Center     Atomic      Atomic             Coordinates (Angstroms)
 Number     Number       Type             X           Y           Z
 ---------------------------------------------------------------------
      1          6           0        0.000000    0.000000    0.000000
      2          8           0        0.000000    0.000000    1.348600
      3          8           0        1.007680    0.000000   -0.656192
      4          1           0        0.922430    0.000000    1.632396
      5          6           0       -1.412031    0.000000   -0.546506
      6          7           0       -1.518192    0.000000   -1.984593
      7          1           0       -1.920977    0.871558   -0.133529
      8          1           0       -1.920977   -0.871558   -0.133529
      9          1           0       -1.053528    0.808581   -2.374724
     10          1           0       -1.053528   -0.808581   -2.374724
 ---------------------------------------------------------------------
                    Distance matrix (angstroms):
                    1          2          3          4          5
     1  C    0.000000
     2  O    1.348600   0.000000
     3  O    1.202500   2.243793   0.000000
     4  H    1.874992   0.965100   2.290175   0.000000
     5  C    1.514100   2.363315   2.422195   3.193324   0.000000
     6  N    2.498703   3.662660   2.853888   4.363398   1.442000
     7  H    2.113669   2.578075   3.099971   3.458767   1.090500
     8  H    2.113669   2.578075   3.099971   3.458767   1.090500
     9  H    2.720853   3.953083   2.802808   4.540399   2.030938
    10  H    2.720853   3.953083   2.802808   4.540399   2.030938
                    6          7          8          9         10
     6  N    0.000000
     7  H    2.085254   0.000000
     8  H    2.085254   1.743117   0.000000
     9  H    1.010900   2.404037   2.932285   0.000000
    10  H    1.010900   2.932285   2.404037   1.617161   0.000000
 Stoichiometry    C2H5NO2
 Framework group  CS[SG(C2HNO2),X(H4)]
 Deg. of freedom    15
 Full point group                 CS      NOp   2
 Largest Abelian subgroup         CS      NOp   2
 Largest concise Abelian subgroup CS      NOp   2
                         Standard orientation:                         
 ---------------------------------------------------------------------
 Center     Atomic      Atomic             Coordinates (Angstroms)
 Number     Number       Type             X           Y           Z
 ---------------------------------------------------------------------
      1          6           0       -0.000000    0.549747   -0.000000
      2          8           0        0.985218    1.470653   -0.000000
      3          8           0       -1.167485    0.837818    0.000000
      4          1           0        0.562653    2.338326   -0.000000
      5          6           0        0.564972   -0.854997   -0.000000
      6          7           0       -0.413127   -1.914567    0.000000
      7          1           0        1.214211   -0.944801    0.871558
      8          1           0        1.214211   -0.944801   -0.871558
      9          1           0       -1.015438   -1.841513    0.808581
     10          1           0       -1.015438   -1.841513   -0.808581
 ---------------------------------------------------------------------
 Rotational constants (GHZ):          10.3961958           3.9010533           2.9303554
 Leave Link  202 at Mon Jan 18 10:11:06 2021, MaxMem= 13421772800 cpu:               1.1 elap:               0.1
 (Enter /data2/software/Gaussian/g16_from_xuruiqin/g16/l301.exe)
 Standard basis: Jun-CC-pVTZ (5D, 7F)
 Ernie: Thresh=  0.10000D-02 Tol=  0.10000D-05 Strict=F.
 Ernie:  15 primitive shells out of 185 were deleted.
 There are   196 symmetry adapted cartesian basis functions of A'  symmetry.
 There are   104 symmetry adapted cartesian basis functions of A"  symmetry.
 There are   168 symmetry adapted basis functions of A'  symmetry.
 There are    97 symmetry adapted basis functions of A"  symmetry.
   265 basis functions,   395 primitive gaussians,   300 cartesian basis functions
    20 alpha electrons       20 beta electrons
       nuclear repulsion energy       179.7404042721 Hartrees.
 IExCor=    0 DFT=F Ex=HF Corr=None ExCW=0 ScaHFX=  1.000000
 ScaDFX=  1.000000  1.000000  1.000000  1.000000 ScalE2=  1.000000  1.000000
 IRadAn=      5 IRanWt=     -1 IRanGd=            0 ICorTp=0 IEmpDi=  4
 NAtoms=   10 NActive=   10 NUniq=    8 SFac= 1.56D+00 NAtFMM=   60 NAOKFM=F Big=F
 Integral buffers will be    131072 words long.
 Raffenetti 1 integral format.
 Two-electron integral symmetry is turned on.
 Leave Link  301 at Mon Jan 18 10:11:07 2021, MaxMem= 13421772800 cpu:               2.7 elap:               0.2
 (Enter /data2/software/Gaussian/g16_from_xuruiqin/g16/l302.exe)
 NPDir=0 NMtPBC=     1 NCelOv=     1 NCel=       1 NClECP=     1 NCelD=      1
         NCelK=      1 NCelE2=     1 NClLst=     1 CellRange=     0.0.
 One-electron integrals computed using PRISM.
 One-electron integral symmetry used in STVInt
 NBasis=   265 RedAO= T EigKep=  4.68D-05  NBF=   168    97
 NBsUse=   265 1.00D-06 EigRej= -1.00D+00 NBFU=   168    97
 Leave Link  302 at Mon Jan 18 10:11:07 2021, MaxMem= 13421772800 cpu:               6.9 elap:               0.3
 (Enter /data2/software/Gaussian/g16_from_xuruiqin/g16/l303.exe)
 DipDrv:  MaxL=1.
 Leave Link  303 at Mon Jan 18 10:11:07 2021, MaxMem= 13421772800 cpu:               1.3 elap:               0.1
 (Enter /data2/software/Gaussian/g16_from_xuruiqin/g16/l401.exe)
 ExpMin= 3.57D-02 ExpMax= 1.53D+04 ExpMxC= 5.22D+02 IAcc=3 IRadAn=         5 AccDes= 0.00D+00
 Harris functional with IExCor=  205 and IRadAn=       5 diagonalized for initial guess.
 HarFok:  IExCor=  205 AccDes= 0.00D+00 IRadAn=         5 IDoV= 1 UseB2=F ITyADJ=14
 ICtDFT=  3500011 ScaDFX=  1.000000  1.000000  1.000000  1.000000
 FoFCou: FMM=F IPFlag=           0 FMFlag=      100000 FMFlg1=           0
         NFxFlg=           0 DoJE=T BraDBF=F KetDBF=T FulRan=T
         wScrn=  0.000000 ICntrl=       500 IOpCl=  0 I1Cent=   200000004 NGrid=           0
         NMat0=    1 NMatS0=      1 NMatT0=    0 NMatD0=    1 NMtDS0=    0 NMtDT0=    0
 Petite list used in FoFCou.
 Harris En= -283.228508602515    
 JPrj=0 DoOrth=F DoCkMO=F.
 Initial guess orbital symmetries:
       Occupied  (A') (A') (A') (A') (A') (A') (A') (A') (A') (A')
                 (A") (A') (A') (A') (A") (A') (A") (A") (A') (A')
       Virtual   (A") (A') (A') (A') (A") (A') (A') (A") (A') (A")
                 (A') (A') (A') (A") (A') (A') (A") (A') (A") (A')
                 (A') (A') (A') (A") (A') (A") (A') (A') (A') (A")
                 (A') (A") (A') (A') (A') (A') (A") (A') (A') (A")
                 (A') (A") (A') (A") (A') (A') (A') (A") (A') (A")
                 (A') (A') (A') (A') (A") (A') (A") (A') (A') (A")
                 (A') (A") (A") (A") (A') (A') (A') (A') (A') (A")
                 (A') (A') (A") (A") (A") (A') (A') (A") (A') (A")
                 (A') (A') (A") (A') (A") (A') (A') (A") (A') (A")
                 (A') (A") (A') (A") (A') (A') (A') (A') (A") (A')
                 (A') (A') (A') (A') (A") (A") (A') (A') (A") (A')
                 (A') (A") (A') (A') (A") (A") (A') (A') (A") (A')
                 (A') (A") (A') (A') (A") (A') (A') (A") (A') (A')
                 (A") (A') (A") (A') (A") (A') (A") (A') (A") (A")
                 (A') (A') (A") (A") (A') (A') (A") (A') (A") (A')
                 (A") (A") (A') (A") (A') (A') (A") (A') (A") (A")
                 (A') (A') (A") (A') (A') (A') (A") (A') (A') (A")
                 (A") (A") (A') (A') (A") (A') (A') (A") (A') (A')
                 (A') (A") (A") (A') (A") (A') (A') (A') (A") (A')
                 (A') (A") (A') (A') (A") (A') (A") (A') (A') (A")
                 (A') (A") (A') (A") (A') (A') (A') (A") (A') (A")
                 (A') (A') (A') (A") (A') (A') (A") (A") (A') (A")
                 (A') (A") (A') (A") (A') (A") (A') (A") (A') (A")
                 (A') (A") (A') (A") (A') (A') (A") (A') (A') (A')
                 (A') (A') (A') (A') (A')
 The electronic state of the initial guess is 1-A'.
 Leave Link  401 at Mon Jan 18 10:11:08 2021, MaxMem= 13421772800 cpu:              13.8 elap:               0.6
 (Enter /data2/software/Gaussian/g16_from_xuruiqin/g16/l502.exe)
 Keep R1 ints in memory in symmetry-blocked form, NReq=933528469.
 FoFCou: FMM=F IPFlag=           0 FMFlag=           0 FMFlg1=           0
         NFxFlg=           0 DoJE=F BraDBF=F KetDBF=F FulRan=T
         wScrn=  0.000000 ICntrl=       600 IOpCl=  0 I1Cent=           0 NGrid=           0
         NMat0=    1 NMatS0=  35245 NMatT0=    0 NMatD0=    1 NMtDS0=    0 NMtDT0=    0
 Petite list used in FoFCou.
 Closed shell SCF:
 Using DIIS extrapolation, IDIIS=  1040.
 NGot= 13421772800 LenX= 13109177540 LenY= 13109087099
 Requested convergence on RMS density matrix=1.00D-08 within 128 cycles.
 Requested convergence on MAX density matrix=1.00D-06.
 Requested convergence on             energy=1.00D-06.
 No special actions if energy rises.

 Cycle   1  Pass 1  IDiag  1:
 E= -282.714112648771    
 DIIS: error= 2.56D-02 at cycle   1 NSaved=   1.
 NSaved= 1 IEnMin= 1 EnMin= -282.714112648771     IErMin= 1 ErrMin= 2.56D-02
 ErrMax= 2.56D-02  0.00D+00 EMaxC= 1.00D-01 BMatC= 5.81D-01 BMatP= 5.81D-01
 IDIUse=3 WtCom= 7.44D-01 WtEn= 2.56D-01
 Coeff-Com:  0.100D+01
 Coeff-En:   0.100D+01
 Coeff:      0.100D+01
 Gap=     0.414 Goal=   None    Shift=    0.000
 GapD=    0.414 DampG=2.000 DampE=0.500 DampFc=1.0000 IDamp=-1.
 RMSDP=1.70D-03 MaxDP=4.73D-02              OVMax= 1.19D-01

 Cycle   2  Pass 1  IDiag  1:
 E= -282.897723015489     Delta-E=       -0.183610366718 Rises=F Damp=F
 DIIS: error= 1.45D-02 at cycle   2 NSaved=   2.
 NSaved= 2 IEnMin= 2 EnMin= -282.897723015489     IErMin= 2 ErrMin= 1.45D-02
 ErrMax= 1.45D-02  0.00D+00 EMaxC= 1.00D-01 BMatC= 7.97D-02 BMatP= 5.81D-01
 IDIUse=3 WtCom= 8.55D-01 WtEn= 1.45D-01
 Coeff-Com:  0.202D+00 0.798D+00
 Coeff-En:   0.000D+00 0.100D+01
 Coeff:      0.173D+00 0.827D+00
 Gap=     0.496 Goal=   None    Shift=    0.000
 RMSDP=7.55D-04 MaxDP=3.24D-02 DE=-1.84D-01 OVMax= 5.73D-02

 Cycle   3  Pass 1  IDiag  1:
 E= -282.944718584418     Delta-E=       -0.046995568929 Rises=F Damp=F
 DIIS: error= 4.48D-03 at cycle   3 NSaved=   3.
 NSaved= 3 IEnMin= 3 EnMin= -282.944718584418     IErMin= 3 ErrMin= 4.48D-03
 ErrMax= 4.48D-03  0.00D+00 EMaxC= 1.00D-01 BMatC= 1.08D-02 BMatP= 7.97D-02
 IDIUse=3 WtCom= 9.55D-01 WtEn= 4.48D-02
 Coeff-Com: -0.237D-01 0.240D+00 0.784D+00
 Coeff-En:   0.000D+00 0.000D+00 0.100D+01
 Coeff:     -0.226D-01 0.229D+00 0.793D+00
 Gap=     0.469 Goal=   None    Shift=    0.000
 RMSDP=1.94D-04 MaxDP=8.10D-03 DE=-4.70D-02 OVMax= 2.60D-02

 Cycle   4  Pass 1  IDiag  1:
 E= -282.951569242273     Delta-E=       -0.006850657855 Rises=F Damp=F
 DIIS: error= 1.12D-03 at cycle   4 NSaved=   4.
 NSaved= 4 IEnMin= 4 EnMin= -282.951569242273     IErMin= 4 ErrMin= 1.12D-03
 ErrMax= 1.12D-03  0.00D+00 EMaxC= 1.00D-01 BMatC= 3.99D-04 BMatP= 1.08D-02
 IDIUse=3 WtCom= 9.89D-01 WtEn= 1.12D-02
 Coeff-Com: -0.115D-01 0.561D-01 0.256D+00 0.700D+00
 Coeff-En:   0.000D+00 0.000D+00 0.000D+00 0.100D+01
 Coeff:     -0.114D-01 0.555D-01 0.253D+00 0.703D+00
 Gap=     0.464 Goal=   None    Shift=    0.000
 RMSDP=4.21D-05 MaxDP=1.47D-03 DE=-6.85D-03 OVMax= 4.88D-03

 Cycle   5  Pass 1  IDiag  1:
 E= -282.951907607958     Delta-E=       -0.000338365685 Rises=F Damp=F
 DIIS: error= 3.48D-04 at cycle   5 NSaved=   5.
 NSaved= 5 IEnMin= 5 EnMin= -282.951907607958     IErMin= 5 ErrMin= 3.48D-04
 ErrMax= 3.48D-04  0.00D+00 EMaxC= 1.00D-01 BMatC= 2.70D-05 BMatP= 3.99D-04
 IDIUse=3 WtCom= 9.97D-01 WtEn= 3.48D-03
 Coeff-Com:  0.216D-02-0.237D-01-0.827D-01 0.261D-01 0.108D+01
 Coeff-En:   0.000D+00 0.000D+00 0.000D+00 0.000D+00 0.100D+01
 Coeff:      0.215D-02-0.237D-01-0.824D-01 0.260D-01 0.108D+01
 Gap=     0.465 Goal=   None    Shift=    0.000
 RMSDP=2.53D-05 MaxDP=8.96D-04 DE=-3.38D-04 OVMax= 3.76D-03

 Cycle   6  Pass 1  IDiag  1:
 E= -282.951959495168     Delta-E=       -0.000051887210 Rises=F Damp=F
 DIIS: error= 1.22D-04 at cycle   6 NSaved=   6.
 NSaved= 6 IEnMin= 6 EnMin= -282.951959495168     IErMin= 6 ErrMin= 1.22D-04
 ErrMax= 1.22D-04  0.00D+00 EMaxC= 1.00D-01 BMatC= 4.19D-06 BMatP= 2.70D-05
 IDIUse=3 WtCom= 9.99D-01 WtEn= 1.22D-03
 Coeff-Com:  0.163D-02-0.117D-01-0.448D-01-0.762D-01 0.233D+00 0.898D+00
 Coeff-En:   0.000D+00 0.000D+00 0.000D+00 0.000D+00 0.000D+00 0.100D+01
 Coeff:      0.162D-02-0.117D-01-0.448D-01-0.761D-01 0.233D+00 0.898D+00
 Gap=     0.465 Goal=   None    Shift=    0.000
 RMSDP=9.76D-06 MaxDP=2.65D-04 DE=-5.19D-05 OVMax= 1.04D-03

 Cycle   7  Pass 1  IDiag  1:
 E= -282.951966887586     Delta-E=       -0.000007392418 Rises=F Damp=F
 DIIS: error= 4.20D-05 at cycle   7 NSaved=   7.
 NSaved= 7 IEnMin= 7 EnMin= -282.951966887586     IErMin= 7 ErrMin= 4.20D-05
 ErrMax= 4.20D-05  0.00D+00 EMaxC= 1.00D-01 BMatC= 4.93D-07 BMatP= 4.19D-06
 IDIUse=1 WtCom= 1.00D+00 WtEn= 0.00D+00
 Coeff-Com: -0.250D-03 0.290D-02 0.124D-01-0.105D-01-0.129D+00-0.279D-01
 Coeff-Com:  0.115D+01
 Coeff:     -0.250D-03 0.290D-02 0.124D-01-0.105D-01-0.129D+00-0.279D-01
 Coeff:      0.115D+01
 Gap=     0.465 Goal=   None    Shift=    0.000
 RMSDP=4.04D-06 MaxDP=1.46D-04 DE=-7.39D-06 OVMax= 7.31D-04

 Cycle   8  Pass 1  IDiag  1:
 E= -282.951968240536     Delta-E=       -0.000001352950 Rises=F Damp=F
 DIIS: error= 1.56D-05 at cycle   8 NSaved=   8.
 NSaved= 8 IEnMin= 8 EnMin= -282.951968240536     IErMin= 8 ErrMin= 1.56D-05
 ErrMax= 1.56D-05  0.00D+00 EMaxC= 1.00D-01 BMatC= 6.69D-08 BMatP= 4.93D-07
 IDIUse=1 WtCom= 1.00D+00 WtEn= 0.00D+00
 Coeff-Com: -0.185D-03 0.125D-02 0.494D-02 0.617D-02-0.108D-01-0.107D+00
 Coeff-Com: -0.129D+00 0.123D+01
 Coeff:     -0.185D-03 0.125D-02 0.494D-02 0.617D-02-0.108D-01-0.107D+00
 Coeff:     -0.129D+00 0.123D+01
 Gap=     0.465 Goal=   None    Shift=    0.000
 RMSDP=1.66D-06 MaxDP=6.59D-05 DE=-1.35D-06 OVMax= 2.95D-04

 Cycle   9  Pass 1  IDiag  1:
 E= -282.951968434418     Delta-E=       -0.000000193882 Rises=F Damp=F
 DIIS: error= 4.27D-06 at cycle   9 NSaved=   9.
 NSaved= 9 IEnMin= 9 EnMin= -282.951968434418     IErMin= 9 ErrMin= 4.27D-06
 ErrMax= 4.27D-06  0.00D+00 EMaxC= 1.00D-01 BMatC= 8.78D-09 BMatP= 6.69D-08
 IDIUse=1 WtCom= 1.00D+00 WtEn= 0.00D+00
 Coeff-Com: -0.524D-05-0.128D-03-0.599D-03 0.170D-02 0.161D-01-0.155D-01
 Coeff-Com: -0.170D+00 0.214D+00 0.954D+00
 Coeff:     -0.524D-05-0.128D-03-0.599D-03 0.170D-02 0.161D-01-0.155D-01
 Coeff:     -0.170D+00 0.214D+00 0.954D+00
 Gap=     0.465 Goal=   None    Shift=    0.000
 RMSDP=4.77D-07 MaxDP=1.87D-05 DE=-1.94D-07 OVMax= 8.28D-05

 Cycle  10  Pass 1  IDiag  1:
 E= -282.951968453118     Delta-E=       -0.000000018700 Rises=F Damp=F
 DIIS: error= 1.69D-06 at cycle  10 NSaved=  10.
 NSaved=10 IEnMin=10 EnMin= -282.951968453118     IErMin=10 ErrMin= 1.69D-06
 ErrMax= 1.69D-06  0.00D+00 EMaxC= 1.00D-01 BMatC= 8.74D-10 BMatP= 8.78D-09
 IDIUse=1 WtCom= 1.00D+00 WtEn= 0.00D+00
 Coeff-Com:  0.262D-04-0.194D-03-0.721D-03-0.121D-02 0.258D-02 0.148D-01
 Coeff-Com:  0.163D-01-0.174D+00 0.178D-01 0.112D+01
 Coeff:      0.262D-04-0.194D-03-0.721D-03-0.121D-02 0.258D-02 0.148D-01
 Coeff:      0.163D-01-0.174D+00 0.178D-01 0.112D+01
 Gap=     0.465 Goal=   None    Shift=    0.000
 RMSDP=1.81D-07 MaxDP=7.53D-06 DE=-1.87D-08 OVMax= 2.57D-05

 Cycle  11  Pass 1  IDiag  1:
 E= -282.951968455207     Delta-E=       -0.000000002089 Rises=F Damp=F
 DIIS: error= 3.60D-07 at cycle  11 NSaved=  11.
 NSaved=11 IEnMin=11 EnMin= -282.951968455207     IErMin=11 ErrMin= 3.60D-07
 ErrMax= 3.60D-07  0.00D+00 EMaxC= 1.00D-01 BMatC= 5.64D-11 BMatP= 8.74D-10
 IDIUse=1 WtCom= 1.00D+00 WtEn= 0.00D+00
 Coeff-Com:  0.266D-06 0.785D-05 0.666D-04-0.118D-03-0.926D-03 0.633D-04
 Coeff-Com:  0.101D-01-0.416D-02-0.711D-01-0.684D-01 0.113D+01
 Coeff:      0.266D-06 0.785D-05 0.666D-04-0.118D-03-0.926D-03 0.633D-04
 Coeff:      0.101D-01-0.416D-02-0.711D-01-0.684D-01 0.113D+01
 Gap=     0.465 Goal=   None    Shift=    0.000
 RMSDP=4.44D-08 MaxDP=1.42D-06 DE=-2.09D-09 OVMax= 4.54D-06

 Cycle  12  Pass 1  IDiag  1:
 E= -282.951968455324     Delta-E=       -0.000000000118 Rises=F Damp=F
 DIIS: error= 1.11D-07 at cycle  12 NSaved=  12.
 NSaved=12 IEnMin=12 EnMin= -282.951968455324     IErMin=12 ErrMin= 1.11D-07
 ErrMax= 1.11D-07  0.00D+00 EMaxC= 1.00D-01 BMatC= 3.41D-12 BMatP= 5.64D-11
 IDIUse=1 WtCom= 1.00D+00 WtEn= 0.00D+00
 Coeff-Com: -0.187D-05 0.139D-04 0.551D-04 0.801D-04-0.182D-03-0.108D-02
 Coeff-Com: -0.158D-02 0.146D-01-0.281D-02-0.867D-01 0.142D-01 0.106D+01
 Coeff:     -0.187D-05 0.139D-04 0.551D-04 0.801D-04-0.182D-03-0.108D-02
 Coeff:     -0.158D-02 0.146D-01-0.281D-02-0.867D-01 0.142D-01 0.106D+01
 Gap=     0.465 Goal=   None    Shift=    0.000
 RMSDP=1.17D-08 MaxDP=4.79D-07 DE=-1.18D-10 OVMax= 9.66D-07

 Cycle  13  Pass 1  IDiag  1:
 E= -282.951968455333     Delta-E=       -0.000000000009 Rises=F Damp=F
 DIIS: error= 3.68D-08 at cycle  13 NSaved=  13.
 NSaved=13 IEnMin=13 EnMin= -282.951968455333     IErMin=13 ErrMin= 3.68D-08
 ErrMax= 3.68D-08  0.00D+00 EMaxC= 1.00D-01 BMatC= 2.90D-13 BMatP= 3.41D-12
 IDIUse=1 WtCom= 1.00D+00 WtEn= 0.00D+00
 Coeff-Com:  0.572D-07-0.131D-05-0.826D-05 0.562D-05 0.985D-04 0.565D-04
 Coeff-Com: -0.104D-02 0.357D-03 0.606D-02 0.610D-02-0.983D-01 0.834D-02
 Coeff-Com:  0.108D+01
 Coeff:      0.572D-07-0.131D-05-0.826D-05 0.562D-05 0.985D-04 0.565D-04
 Coeff:     -0.104D-02 0.357D-03 0.606D-02 0.610D-02-0.983D-01 0.834D-02
 Coeff:      0.108D+01
 Gap=     0.465 Goal=   None    Shift=    0.000
 RMSDP=3.33D-09 MaxDP=9.83D-08 DE=-8.98D-12 OVMax= 2.78D-07

 SCF Done:  E(RHF) =  -282.951968455     A.U. after   13 cycles
            NFock= 13  Conv=0.33D-08     -V/T= 2.0015
 KE= 2.825408474705D+02 PE=-1.025732256434D+03 EE= 2.804990362359D+02
 Leave Link  502 at Mon Jan 18 10:11:17 2021, MaxMem= 13421772800 cpu:             139.2 elap:               9.0
 (Enter /data2/software/Gaussian/g16_from_xuruiqin/g16/l801.exe)
 Windowed orbitals will be sorted by symmetry type.
 ExpMin= 3.57D-02 ExpMax= 1.53D+04 ExpMxC= 5.22D+02 IAcc=3 IRadAn=         5 AccDes= 0.00D+00
 HarFok:  IExCor=  205 AccDes= 0.00D+00 IRadAn=         5 IDoV=-2 UseB2=F ITyADJ=14
 ICtDFT= 12500011 ScaDFX=  1.000000  1.000000  1.000000  1.000000
 Largest valence mixing into a core orbital is  2.05D-04
 Largest core mixing into a valence orbital is  3.06D-05
 Range of M.O.s used for correlation:     6   265
 NBasis=   265 NAE=    20 NBE=    20 NFC=     5 NFV=     0
 NROrb=    260 NOA=    15 NOB=    15 NVA=   245 NVB=   245

 **** Warning!!: The largest alpha MO coefficient is  0.30470328D+02

 Leave Link  801 at Mon Jan 18 10:11:18 2021, MaxMem= 13421772800 cpu:               2.5 elap:               0.2
 (Enter /data2/software/Gaussian/g16_from_xuruiqin/g16/l804.exe)
 Closed-shell transformation, MDV= 13421772800 ITran=4 ISComp=2.
 Unit  1 TFree=       2333239 TCopy=       1236586.
 Semi-Direct transformation.
 ModeAB=           4 MOrb=            15 LenV=   13419946541
 LASXX=     63877396 LTotXX=    63877396 LenRXX=   128545993
 LTotAB=    64668597 MaxLAS=   143960700 LenRXY=           0
 NonZer=   192423389 LenScr=   289112064 LnRSAI=   143960700
 LnScr1=   216465408 LExtra=           0 Total=    778084165
 MaxDsk=          -1 SrtSym=           T ITran=            4
 DoSDTr:  NPSUse= 28
 JobTyp=0 Pass  1:  I=   1 to  15.
 (rs|ai) integrals will be sorted in core.
 Complete sort for first half transformation.
 First half transformation complete.
 Begin second half transformation for I=  10.
 Complete sort for second half transformation.
 Second half transformation complete.
 Spin components of T(2) and E(2):
     alpha-alpha T2 =       0.3597888578D-01 E2=     -0.1278457690D+00
     alpha-beta  T2 =       0.1993918729D+00 E2=     -0.7606720370D+00
     beta-beta   T2 =       0.3597888578D-01 E2=     -0.1278457690D+00
 ANorm=    0.1127541416D+01
 E2 =    -0.1016363575D+01 EUMP2 =    -0.28396833203035D+03
 Leave Link  804 at Mon Jan 18 10:11:44 2021, MaxMem= 13421772800 cpu:             719.5 elap:              26.2
 (Enter /data2/software/Gaussian/g16_from_xuruiqin/g16/l913.exe)
 CIDS:  MDV= 13421772800.
 Frozen-core window:  NFC=   5 NFV=   0.
 IFCWin=0 IBDFC=1 NFBD=     0     0 NFCmp=     0     0 NFFFC=     0     0
 Using DD3R+UMP44R for 1st iteration.
 Using DD4RQ for 2nd and later iterations.
 Keep R2 and R3 ints in memory in symmetry-blocked form, NReq=937075696.
 FoFCou: FMM=F IPFlag=           0 FMFlag=           0 FMFlg1=           0
         NFxFlg=           0 DoJE=F BraDBF=F KetDBF=F FulRan=T
         wScrn=  0.000000 ICntrl=       600 IOpCl=  0 I1Cent=           0 NGrid=           0
         NMat0=    1 NMatS0=  35245 NMatT0=    0 NMatD0=    1 NMtDS0=    0 NMtDT0=    0
 Petite list used in FoFCou.
 CIDS: In Core Option IDoMem=           1.
 CCSD(T)
 =======
 Iterations=  50 Convergence= 0.100D-06
 Produce multiple copies of IABC intergrals
 Iteration Nr.   1
 **********************
 DD1Dir will call FoFMem   1 times, MxPair=       240
 NAB=   120 NAA=     0 NBB=     0.
 MP4(R+Q)=  0.22182606D-01
 Maximum subspace dimension=  5
 A-vector RMS=  2.1704631D-03 Max=  2.7939960D-02 conv= 1.00D-05.
 RLE energy=       -1.0047077104
 E3=       -0.10898189D-01        EUMP3=      -0.28397923022D+03
 E4(DQ)=    0.15149617D-02        UMP4(DQ)=   -0.28397771526D+03
 E4(SDQ)=  -0.98143146D-02        UMP4(SDQ)=  -0.28398904453D+03
 VARIATIONAL ENERGIES WITH THE FIRST-ORDER WAVEFUNCTION:
 DE(Corr)=  -1.0045727     E(Corr)=     -283.95654119    
 NORM(A)=   0.11273592D+01
 Iteration Nr.   2
 **********************
 DD1Dir will call FoFMem   1 times, MxPair=       240
 NAB=   120 NAA=     0 NBB=     0.
 A-vector RMS=  3.1097317D-04 Max=  8.2867242D-03 conv= 1.00D-05.
 RLE energy=       -1.0323007315
 DE(Corr)=  -1.0319200     E(CORR)=     -283.98388843     Delta=-2.73D-02
 NORM(A)=   0.11368741D+01
 Iteration Nr.   3
 **********************
 DD1Dir will call FoFMem   1 times, MxPair=       240
 NAB=   120 NAA=     0 NBB=     0.
 A-vector RMS=  4.0573890D-04 Max=  6.4326215D-03 conv= 1.00D-05.
 RLE energy=       -1.0338280609
 DE(Corr)=  -1.0314881     E(CORR)=     -283.98345655     Delta= 4.32D-04
 NORM(A)=   0.11394337D+01
 Iteration Nr.   4
 **********************
 DD1Dir will call FoFMem   1 times, MxPair=       240
 NAB=   120 NAA=     0 NBB=     0.
 A-vector RMS=  6.7471640D-05 Max=  1.1637094D-03 conv= 1.00D-05.
 RLE energy=       -1.0340027846
 DE(Corr)=  -1.0338163     E(CORR)=     -283.98578480     Delta=-2.33D-03
 NORM(A)=   0.11402152D+01
 Iteration Nr.   5
 **********************
 DD1Dir will call FoFMem   1 times, MxPair=       240
 NAB=   120 NAA=     0 NBB=     0.
 A-vector RMS=  4.1728576D-05 Max=  5.9413453D-04 conv= 1.00D-05.
 RLE energy=       -1.0341121751
 DE(Corr)=  -1.0340669     E(CORR)=     -283.98603535     Delta=-2.51D-04
 NORM(A)=   0.11404651D+01
 Iteration Nr.   6
 **********************
 DD1Dir will call FoFMem   1 times, MxPair=       240
 NAB=   120 NAA=     0 NBB=     0.
 A-vector RMS=  1.1288222D-05 Max=  1.7649820D-04 conv= 1.00D-05.
 RLE energy=       -1.0340956306
 DE(Corr)=  -1.0340900     E(CORR)=     -283.98605841     Delta=-2.31D-05
 NORM(A)=   0.11404938D+01
 Iteration Nr.   7
 **********************
 DD1Dir will call FoFMem   1 times, MxPair=       240
 NAB=   120 NAA=     0 NBB=     0.
 A-vector RMS=  5.1946596D-06 Max=  6.5001525D-05 conv= 1.00D-05.
 RLE energy=       -1.0340780309
 DE(Corr)=  -1.0340910     E(CORR)=     -283.98605950     Delta=-1.10D-06
 NORM(A)=   0.11404959D+01
 Iteration Nr.   8
 **********************
 DD1Dir will call FoFMem   1 times, MxPair=       240
 NAB=   120 NAA=     0 NBB=     0.
 A-vector RMS=  1.6378955D-06 Max=  2.3719299D-05 conv= 1.00D-05.
 RLE energy=       -1.0340886635
 DE(Corr)=  -1.0340897     E(CORR)=     -283.98605812     Delta= 1.38D-06
 NORM(A)=   0.11405003D+01
 Iteration Nr.   9
 **********************
 DD1Dir will call FoFMem   1 times, MxPair=       240
 NAB=   120 NAA=     0 NBB=     0.
 A-vector RMS=  5.6033003D-07 Max=  7.4280670D-06 conv= 1.00D-05.
 RLE energy=       -1.0340884030
 DE(Corr)=  -1.0340887     E(CORR)=     -283.98605718     Delta= 9.40D-07
 NORM(A)=   0.11405006D+01
 Iteration Nr.  10
 **********************
 DD1Dir will call FoFMem   1 times, MxPair=       240
 NAB=   120 NAA=     0 NBB=     0.
 A-vector RMS=  2.7899524D-07 Max=  4.2780387D-06 conv= 1.00D-05.
 RLE energy=       -1.0340893941
 DE(Corr)=  -1.0340895     E(CORR)=     -283.98605792     Delta=-7.33D-07
 NORM(A)=   0.11405011D+01
 Iteration Nr.  11
 **********************
 DD1Dir will call FoFMem   1 times, MxPair=       240
 NAB=   120 NAA=     0 NBB=     0.
 A-vector RMS=  1.1952127D-07 Max=  1.4522783D-06 conv= 1.00D-05.
 RLE energy=       -1.0340897648
 DE(Corr)=  -1.0340896     E(CORR)=     -283.98605807     Delta=-1.51D-07
 NORM(A)=   0.11405015D+01
 Iteration Nr.  12
 **********************
 DD1Dir will call FoFMem   1 times, MxPair=       240
 NAB=   120 NAA=     0 NBB=     0.
 A-vector RMS=  4.7769569D-08 Max=  8.0995521D-07 conv= 1.00D-05.
 RLE energy=       -1.0340898981
 DE(Corr)=  -1.0340898     E(CORR)=     -283.98605829     Delta=-2.28D-07
 NORM(A)=   0.11405017D+01
 Iteration Nr.  13
 **********************
 DD1Dir will call FoFMem   1 times, MxPair=       240
 NAB=   120 NAA=     0 NBB=     0.
 A-vector RMS=  2.5981206D-08 Max=  3.2159444D-07 conv= 1.00D-05.
 RLE energy=       -1.0340899150
 DE(Corr)=  -1.0340899     E(CORR)=     -283.98605834     Delta=-4.80D-08
 NORM(A)=   0.11405018D+01
 CI/CC converged in   13 iterations to DelEn=-4.80D-08 Conv= 1.00D-07 ErrA1= 2.60D-08 Conv= 1.00D-05
 Wavefunction amplitudes converged. E(Corr)=     -283.98605834    
 Largest amplitude= 5.02D-02
 IPart=  7 IA=   14   10.35% done.
 IPart= 13 IA=   27   20.14% done.
 IPart= 28 IA=   41   30.04% done.
 IPart= 11 IA=   57   40.56% done.
 IPart=  8 IA=   73   50.22% done.
 IPart= 15 IA=   91   60.07% done.
 IPart= 27 IA=  112   70.19% done.
 IPart= 14 IA=  137   80.31% done.
 IPart=  9 IA=  169   90.21% done.
 Time for triples=   282180.38 seconds.
 T4(CCSD)= -0.45767083D-01
 T5(CCSD)=  0.20887708D-02
 CCSD(T)= -0.28402973665D+03
 Discarding MO integrals.
 Leave Link  913 at Mon Jan 18 13:18:40 2021, MaxMem= 13421772800 cpu:          303938.6 elap:           11215.4
 (Enter /data2/software/Gaussian/g16_from_xuruiqin/g16/l601.exe)
 Copying SCF densities to generalized density rwf, IOpCl= 0 IROHF=0.

 **********************************************************************

            Population analysis using the SCF Density.

 **********************************************************************

 Orbital symmetries:
       Occupied  (A') (A') (A') (A') (A') (A') (A') (A') (A') (A')
                 (A') (A') (A") (A") (A') (A') (A") (A") (A') (A')
       Virtual   (A') (A') (A') (A") (A") (A') (A') (A') (A") (A")
                 (A') (A') (A') (A") (A') (A') (A') (A') (A") (A')
                 (A") (A") (A') (A') (A') (A") (A') (A') (A") (A')
                 (A") (A') (A') (A') (A") (A') (A') (A') (A') (A")
                 (A") (A') (A') (A') (A") (A") (A') (A') (A') (A")
                 (A') (A') (A') (A") (A') (A') (A") (A') (A") (A')
                 (A") (A') (A") (A') (A") (A') (A') (A') (A") (A')
                 (A') (A') (A") (A") (A") (A') (A') (A") (A') (A")
                 (A') (A') (A") (A") (A') (A") (A') (A') (A') (A")
                 (A') (A") (A') (A') (A") (A') (A') (A') (A") (A')
                 (A') (A') (A') (A') (A") (A") (A') (A') (A") (A')
                 (A') (A") (A') (A') (A") (A") (A') (A') (A") (A')
                 (A') (A") (A') (A') (A") (A') (A') (A") (A') (A')
                 (A") (A') (A") (A') (A") (A') (A") (A') (A") (A")
                 (A') (A') (A") (A") (A') (A") (A') (A") (A') (A")
                 (A") (A') (A") (A') (A') (A') (A") (A") (A') (A")
                 (A') (A') (A') (A") (A') (A') (A") (A") (A') (A')
                 (A") (A") (A') (A') (A') (A") (A') (A') (A') (A")
                 (A') (A") (A') (A") (A") (A') (A') (A") (A') (A')
                 (A") (A') (A') (A') (A") (A') (A") (A') (A') (A")
                 (A') (A") (A") (A') (A') (A') (A') (A') (A") (A')
                 (A") (A') (A") (A') (A') (A') (A") (A') (A") (A")
                 (A") (A') (A') (A") (A') (A") (A') (A") (A') (A")
                 (A') (A") (A') (A") (A') (A") (A') (A') (A') (A')
                 (A') (A') (A') (A') (A')
 The electronic state is 1-A'.
 Alpha  occ. eigenvalues --  -20.61971 -20.55718 -15.55301 -11.38777 -11.27853
 Alpha  occ. eigenvalues --   -1.47455  -1.37134  -1.19972  -0.98135  -0.81938
 Alpha  occ. eigenvalues --   -0.71262  -0.70206  -0.69872  -0.63281  -0.60532
 Alpha  occ. eigenvalues --   -0.58961  -0.53795  -0.49240  -0.46969  -0.41298
 Alpha virt. eigenvalues --    0.05245   0.05833   0.06721   0.07275   0.10120
 Alpha virt. eigenvalues --    0.10177   0.10440   0.13231   0.13626   0.16336
 Alpha virt. eigenvalues --    0.16678   0.17651   0.19486   0.19508   0.22169
 Alpha virt. eigenvalues --    0.23341   0.23781   0.24719   0.25113   0.26140
 Alpha virt. eigenvalues --    0.27619   0.29520   0.29628   0.30706   0.33717
 Alpha virt. eigenvalues --    0.36156   0.36430   0.39058   0.40176   0.40407
 Alpha virt. eigenvalues --    0.40481   0.43243   0.45009   0.47574   0.50194
 Alpha virt. eigenvalues --    0.50679   0.52708   0.55165   0.55853   0.56478
 Alpha virt. eigenvalues --    0.58887   0.60004   0.62240   0.64592   0.65932
 Alpha virt. eigenvalues --    0.67435   0.68281   0.70235   0.72662   0.74198
 Alpha virt. eigenvalues --    0.76367   0.78020   0.79387   0.79911   0.80821
 Alpha virt. eigenvalues --    0.83248   0.85309   0.85950   0.87474   0.87727
 Alpha virt. eigenvalues --    0.89455   0.89705   0.93453   0.95778   0.98505
 Alpha virt. eigenvalues --    1.00686   1.01081   1.04448   1.07594   1.07939
 Alpha virt. eigenvalues --    1.10529   1.13695   1.16818   1.18230   1.24487
 Alpha virt. eigenvalues --    1.24714   1.28604   1.28908   1.30150   1.33877
 Alpha virt. eigenvalues --    1.34604   1.35140   1.36637   1.42096   1.42974
 Alpha virt. eigenvalues --    1.48256   1.48325   1.50194   1.53428   1.54209
 Alpha virt. eigenvalues --    1.57709   1.59419   1.60520   1.62898   1.64806
 Alpha virt. eigenvalues --    1.67513   1.72844   1.74403   1.75576   1.79639
 Alpha virt. eigenvalues --    1.85167   1.90438   1.92188   2.00550   2.04870
 Alpha virt. eigenvalues --    2.10139   2.13045   2.14223   2.17507   2.21836
 Alpha virt. eigenvalues --    2.23381   2.26068   2.35000   2.39465   2.41612
 Alpha virt. eigenvalues --    2.45060   2.55684   2.58825   2.61760   2.71763
 Alpha virt. eigenvalues --    2.77179   2.87502   2.90299   2.99984   3.01914
 Alpha virt. eigenvalues --    3.08781   3.14434   3.17318   3.17998   3.25078
 Alpha virt. eigenvalues --    3.28177   3.30328   3.32186   3.33389   3.35632
 Alpha virt. eigenvalues --    3.41035   3.42527   3.49780   3.52605   3.53866
 Alpha virt. eigenvalues --    3.54338   3.57162   3.59879   3.60930   3.63368
 Alpha virt. eigenvalues --    3.66849   3.69594   3.70405   3.72473   3.74509
 Alpha virt. eigenvalues --    3.79620   3.81322   3.82386   3.83058   3.87132
 Alpha virt. eigenvalues --    3.90743   3.91568   3.94703   3.98055   3.99152
 Alpha virt. eigenvalues --    4.03033   4.07115   4.12601   4.17139   4.23480
 Alpha virt. eigenvalues --    4.24711   4.25100   4.27559   4.28178   4.31246
 Alpha virt. eigenvalues --    4.31782   4.37313   4.40205   4.43746   4.46885
 Alpha virt. eigenvalues --    4.48442   4.50643   4.58004   4.61171   4.64474
 Alpha virt. eigenvalues --    4.67356   4.67491   4.72676   4.72979   4.78961
 Alpha virt. eigenvalues --    4.81556   4.83601   4.84930   4.88062   5.05529
 Alpha virt. eigenvalues --    5.07411   5.13485   5.19961   5.23431   5.28679
 Alpha virt. eigenvalues --    5.30757   5.37658   5.42802   5.50014   5.55856
 Alpha virt. eigenvalues --    5.57068   5.61842   5.64250   5.66213   5.71173
 Alpha virt. eigenvalues --    5.74253   5.85922   5.87092   5.89516   6.02778
 Alpha virt. eigenvalues --    6.04902   6.07790   6.10290   6.13987   6.27009
 Alpha virt. eigenvalues --    6.29788   6.31556   6.44773   6.46837   6.53842
 Alpha virt. eigenvalues --    6.63938   6.70846   6.75691   6.79754   6.97109
 Alpha virt. eigenvalues --    7.02171   7.05533   7.12224   7.22493   7.23802
 Alpha virt. eigenvalues --    7.30527   7.35470   7.37287   7.42829   7.57131
 Alpha virt. eigenvalues --    7.59877   7.71290   7.78730   7.93781   8.12954
 Alpha virt. eigenvalues --   11.85743  13.84796  14.07694  14.33969  14.73678
          Condensed to atoms (all electrons):
               1          2          3          4          5          6
     1  C    4.527788   0.316689   0.500510  -0.019653   0.306746  -0.028554
     2  O    0.316689   7.937540  -0.102285   0.264359  -0.072976   0.002972
     3  O    0.500510  -0.102285   8.143816   0.000298  -0.026027  -0.023565
     4  H   -0.019653   0.264359   0.000298   0.520729   0.013762  -0.000204
     5  C    0.306746  -0.072976  -0.026027   0.013762   4.883663   0.204694
     6  N   -0.028554   0.002972  -0.023565  -0.000204   0.204694   6.705450
     7  H   -0.012176  -0.002766   0.000419  -0.000074   0.421471  -0.048163
     8  H   -0.012176  -0.002766   0.000419  -0.000074   0.421471  -0.048163
     9  H   -0.003978  -0.000265  -0.000059  -0.000032   0.010755   0.315171
    10  H   -0.003978  -0.000265  -0.000059  -0.000032   0.010755   0.315171
               7          8          9         10
     1  C   -0.012176  -0.012176  -0.003978  -0.003978
     2  O   -0.002766  -0.002766  -0.000265  -0.000265
     3  O    0.000419   0.000419  -0.000059  -0.000059
     4  H   -0.000074  -0.000074  -0.000032  -0.000032
     5  C    0.421471   0.421471   0.010755   0.010755
     6  N   -0.048163  -0.048163   0.315171   0.315171
     7  H    0.431688  -0.006619  -0.000555   0.005043
     8  H   -0.006619   0.431688   0.005043  -0.000555
     9  H   -0.000555   0.005043   0.543261  -0.034171
    10  H    0.005043  -0.000555  -0.034171   0.543261
 Mulliken charges:
               1
     1  C    0.428781
     2  O   -0.340237
     3  O   -0.493465
     4  H    0.220922
     5  C   -0.174314
     6  N   -0.394810
     7  H    0.211732
     8  H    0.211732
     9  H    0.164829
    10  H    0.164829
 Sum of Mulliken charges =  -0.00000
 Mulliken charges with hydrogens summed into heavy atoms:
               1
     1  C    0.428781
     2  O   -0.119316
     3  O   -0.493465
     5  C    0.249151
     6  N   -0.065151
 Electronic spatial extent (au):  <R**2>=            420.0164
 Charge=             -0.0000 electrons
 Dipole moment (field-independent basis, Debye):
    X=              1.0610    Y=              0.7081    Z=              0.0000  Tot=              1.2756
 Quadrupole moment (field-independent basis, Debye-Ang):
   XX=            -33.0986   YY=            -30.2662   ZZ=            -27.2771
   XY=              2.8097   XZ=             -0.0000   YZ=              0.0000
 Traceless Quadrupole moment (field-independent basis, Debye-Ang):
   XX=             -2.8846   YY=             -0.0522   ZZ=              2.9369
   XY=              2.8097   XZ=             -0.0000   YZ=              0.0000
 Octapole moment (field-independent basis, Debye-Ang**2):
  XXX=             -0.2725  YYY=             41.2006  ZZZ=              0.0000  XYY=             -1.0340
  XXY=             -8.2058  XXZ=              0.0000  XZZ=             -1.2552  YZZ=             -1.6811
  YYZ=              0.0000  XYZ=              0.0000
 Hexadecapole moment (field-independent basis, Debye-Ang**3):
 XXXX=           -148.7609 YYYY=           -335.2191 ZZZZ=            -34.4947 XXXY=            -14.2099
 XXXZ=             -0.0000 YYYX=             -0.7368 YYYZ=             -0.0000 ZZZX=              0.0000
 ZZZY=             -0.0000 XXYY=            -76.9626 XXZZ=            -27.0201 YYZZ=            -56.2669
 XXYZ=             -0.0000 YYXZ=             -0.0000 ZZXY=             -3.6524
 N-N= 1.797404042721D+02 E-N=-1.025732253972D+03  KE= 2.825408474705D+02
 Symmetry A'   KE= 2.697433800084D+02
 Symmetry A"   KE= 1.279746746211D+01
 Leave Link  601 at Mon Jan 18 13:18:42 2021, MaxMem= 13421772800 cpu:              15.3 elap:               0.9
 (Enter /data2/software/Gaussian/g16_from_xuruiqin/g16/l9999.exe)
 Unable to Open any file for archive entry.
 1\1\GINC-CPU06\SP\RCCSD(T)-FC\Jun-CC-pVTZ\C2H5N1O2\ROOT\18-Jan-2021\0\
 \#p CCSD(T)/jun-cc-pvtz\\start best geom PCCP paper\\0,1\C\O,1,1.3486\
 O,1,1.2025,2,123.0718\H,2,0.9651,1,107.1011,3,0.,0\C,1,1.5141,3,125.77
 ,2,180.,0\N,5,1.442,1,115.3802,3,0.,0\H,5,1.0905,1,107.3709,3,-123.131
 2,0\H,5,1.0905,1,107.3709,3,123.1312,0\H,6,1.0109,5,110.5508,1,-58.674
 1,0\H,6,1.0109,5,110.5508,1,58.6741,0\\Version=ES64L-G16RevC.01\State=
 1-A'\HF=-282.9519685\MP2=-283.968332\MP3=-283.9792302\MP4D=-283.999897
 9\MP4DQ=-283.9777153\MP4SDQ=-283.9890445\CCSD=-283.9860583\CCSD(T)=-28
 4.0297367\RMSD=3.326e-09\PG=CS [SG(C2H1N1O2),X(H4)]\\@
 The archive entry for this job was punched.


 AN OPTIMIST IS A GUY
 THAT HAS NEVER HAD
 MUCH EXPERIENCE
   (CERTAIN MAXIMS OF ARCHY  -- DON MARQUIS)
 Job cpu time:       3 days 12 hours 41 minutes  4.6 seconds.
 Elapsed time:       0 days  3 hours  7 minutes 34.0 seconds.
 File lengths (MBytes):  RWF=   6081 Int=      0 D2E=      0 Chk=      6 Scr=      1
 Normal termination of Gaussian 16 at Mon Jan 18 13:18:43 2021.
