 Entering Gaussian System, Link 0=g16
 Input=VII_tcc_Best_geom_CCSDT_jun_cc_pVTZ.gjf
 Output=VII_tcc_Best_geom_CCSDT_jun_cc_pVTZ.log
 Initial command:
 /data2/software/Gaussian/g16_from_xuruiqin/g16/l1.exe "/home/shuchong/scratch/Gau-18853.inp" -scrdir="/home/shuchong/scratch/"
 Entering Link 1 = /data2/software/Gaussian/g16_from_xuruiqin/g16/l1.exe PID=     18854.
  
 Copyright (c) 1988-2019, Gaussian, Inc.  All Rights Reserved.
  
 This is part of the Gaussian(R) 16 program.  It is based on
 the Gaussian(R) 09 system (copyright 2009, Gaussian, Inc.),
 the Gaussian(R) 03 system (copyright 2003, Gaussian, Inc.),
 the Gaussian(R) 98 system (copyright 1998, Gaussian, Inc.),
 the Gaussian(R) 94 system (copyright 1995, Gaussian, Inc.),
 the Gaussian 92(TM) system (copyright 1992, Gaussian, Inc.),
 the Gaussian 90(TM) system (copyright 1990, Gaussian, Inc.),
 the Gaussian 88(TM) system (copyright 1988, Gaussian, Inc.),
 the Gaussian 86(TM) system (copyright 1986, Carnegie Mellon
 University), and the Gaussian 82(TM) system (copyright 1983,
 Carnegie Mellon University). Gaussian is a federally registered
 trademark of Gaussian, Inc.
  
 This software contains proprietary and confidential information,
 including trade secrets, belonging to Gaussian, Inc.
  
 This software is provided under written license and may be
 used, copied, transmitted, or stored only in accord with that
 written license.
  
 The following legend is applicable only to US Government
 contracts under FAR:
  
                    RESTRICTED RIGHTS LEGEND
  
 Use, reproduction and disclosure by the US Government is
 subject to restrictions as set forth in subparagraphs (a)
 and (c) of the Commercial Computer Software - Restricted
 Rights clause in FAR 52.227-19.
  
 Gaussian, Inc.
 340 Quinnipiac St., Bldg. 40, Wallingford CT 06492
  
  
 ---------------------------------------------------------------
 Warning -- This program may not be used in any manner that
 competes with the business of Gaussian, Inc. or will provide
 assistance to any competitor of Gaussian, Inc.  The licensee
 of this program is prohibited from giving any competitor of
 Gaussian, Inc. access to this program.  By using this program,
 the user acknowledges that Gaussian, Inc. is engaged in the
 business of creating and licensing software in the field of
 computational chemistry and represents and warrants to the
 licensee that it is not a competitor of Gaussian, Inc. and that
 it will not use this program in any manner prohibited above.
 ---------------------------------------------------------------
  

 Cite this work as:
 Gaussian 16, Revision C.01,
 M. J. Frisch, G. W. Trucks, H. B. Schlegel, G. E. Scuseria, 
 M. A. Robb, J. R. Cheeseman, G. Scalmani, V. Barone, 
 G. A. Petersson, H. Nakatsuji, X. Li, M. Caricato, A. V. Marenich, 
 J. Bloino, B. G. Janesko, R. Gomperts, B. Mennucci, H. P. Hratchian, 
 J. V. Ortiz, A. F. Izmaylov, J. L. Sonnenberg, D. Williams-Young, 
 F. Ding, F. Lipparini, F. Egidi, J. Goings, B. Peng, A. Petrone, 
 T. Henderson, D. Ranasinghe, V. G. Zakrzewski, J. Gao, N. Rega, 
 G. Zheng, W. Liang, M. Hada, M. Ehara, K. Toyota, R. Fukuda, 
 J. Hasegawa, M. Ishida, T. Nakajima, Y. Honda, O. Kitao, H. Nakai, 
 T. Vreven, K. Throssell, J. A. Montgomery, Jr., J. E. Peralta, 
 F. Ogliaro, M. J. Bearpark, J. J. Heyd, E. N. Brothers, K. N. Kudin, 
 V. N. Staroverov, T. A. Keith, R. Kobayashi, J. Normand, 
 K. Raghavachari, A. P. Rendell, J. C. Burant, S. S. Iyengar, 
 J. Tomasi, M. Cossi, J. M. Millam, M. Klene, C. Adamo, R. Cammi, 
 J. W. Ochterski, R. L. Martin, K. Morokuma, O. Farkas, 
 J. B. Foresman, and D. J. Fox, Gaussian, Inc., Wallingford CT, 2019.
 
 ******************************************
 Gaussian 16:  ES64L-G16RevC.01  3-Jul-2019
                15-Jan-2021 
 ******************************************
 %chk=VII_tcc_Best_geom_CCSDT_jun_cc_pVTZ.chk
 %nprocshared=28
 Will use up to   28 processors via shared memory.
 %mem=100GB
 ----------------------
 #p CCSD(T)/jun-cc-pvtz
 ----------------------
 1/38=1,172=1/1;
 2/12=2,17=6,18=5,40=1/2;
 3/5=16,6=1,7=60,11=9,25=1,30=1/1,2,3;
 4//1;
 5/5=2,38=5/2;
 8/6=4,9=120000,10=1/1,4;
 9/5=7,14=2/13;
 6/7=2,8=2,9=2,10=2/1;
 99/5=1,9=1/99;
 Leave Link    1 at Fri Jan 15 18:07:12 2021, MaxMem= 13421772800 cpu:               0.5 elap:               0.0
 (Enter /data2/software/Gaussian/g16_from_xuruiqin/g16/l101.exe)
 ------
 VII_SP
 ------
 Symbolic Z-matrix:
 Charge =  0 Multiplicity = 1
 C
 O                    1    B1
 O                    1    B2       2    A1
 H                    2    B3       1    A2       3    D1       0
 C                    1    B4       3    A3       2    D2       0
 N                    5    B5       1    A4       3    D3       0
 H                    5    B6       1    A5       3    D4       0
 H                    5    B7       1    A6       3    D5       0
 H                    6    B8       5    A7       1    D6       0
 H                    6    B9       5    A8       1    D7       0
       Variables:
  B1                    1.34574                  
  B2                    1.19815                  
  B3                    0.96472                  
  B4                    1.52715                  
  B5                    1.44048                  
  B6                    1.08922                  
  B7                    1.08922                  
  B8                    1.00566                  
  B9                    1.00566                  
  A1                  121.2126                   
  A2                  108.75236                  
  A3                  122.19982                  
  A4                  118.81834                  
  A5                  105.99599                  
  A6                  105.99599                  
  A7                  116.68391                  
  A8                  116.68391                  
  D1                  180.                       
  D2                  180.                       
  D3                  180.                       
  D4                   56.33574                  
  D5                  -56.33574                  
  D6                  -68.87807                  
  D7                   68.87807                  
 
 ITRead=  0  0  0  0  0  0  0  0  0  0
 MicOpt= -1 -1 -1 -1 -1 -1 -1 -1 -1 -1
 NAtoms=     10 NQM=       10 NQMF=       0 NMMI=      0 NMMIF=      0
                NMic=       0 NMicF=      0.
                    Isotopes and Nuclear Properties:
 (Nuclear quadrupole moments (NQMom) in fm**2, nuclear magnetic moments (NMagM)
  in nuclear magnetons)

  Atom         1           2           3           4           5           6           7           8           9          10
 IAtWgt=          12          16          16           1          12          14           1           1           1           1
 AtmWgt=  12.0000000  15.9949146  15.9949146   1.0078250  12.0000000  14.0030740   1.0078250   1.0078250   1.0078250   1.0078250
 NucSpn=           0           0           0           1           0           2           1           1           1           1
 AtZEff=  -0.0000000  -0.0000000  -0.0000000  -0.0000000  -0.0000000  -0.0000000  -0.0000000  -0.0000000  -0.0000000  -0.0000000
 NQMom=    0.0000000   0.0000000   0.0000000   0.0000000   0.0000000   2.0440000   0.0000000   0.0000000   0.0000000   0.0000000
 NMagM=    0.0000000   0.0000000   0.0000000   2.7928460   0.0000000   0.4037610   2.7928460   2.7928460   2.7928460   2.7928460
 AtZNuc=   6.0000000   8.0000000   8.0000000   1.0000000   6.0000000   7.0000000   1.0000000   1.0000000   1.0000000   1.0000000
 Leave Link  101 at Fri Jan 15 18:07:12 2021, MaxMem= 13421772800 cpu:               3.8 elap:               0.2
 (Enter /data2/software/Gaussian/g16_from_xuruiqin/g16/l202.exe)
                          Input orientation:                          
 ---------------------------------------------------------------------
 Center     Atomic      Atomic             Coordinates (Angstroms)
 Number     Number       Type             X           Y           Z
 ---------------------------------------------------------------------
      1          6           0        0.000000    0.000000    0.000000
      2          8           0        0.000000    0.000000    1.345736
      3          8           0        1.024715    0.000000   -0.620898
      4          1           0       -0.913510    0.000000    1.655872
      5          6           0       -1.365657    0.000000   -0.683500
      6          7           0       -2.551449    0.000000    0.134343
      7          1           0       -1.374303   -0.871458   -1.336868
      8          1           0       -1.374303    0.871458   -1.336868
      9          1           0       -2.739373   -0.838184    0.657296
     10          1           0       -2.739373    0.838184    0.657296
 ---------------------------------------------------------------------
                    Distance matrix (angstroms):
                    1          2          3          4          5
     1  C    0.000000
     2  O    1.345736   0.000000
     3  O    1.198147   2.217586   0.000000
     4  H    1.891141   0.964720   2.990050   0.000000
     5  C    1.527151   2.445979   2.391192   2.382666   0.000000
     6  N    2.554984   2.824423   3.655043   2.235598   1.440476
     7  H    2.106031   3.137596   2.650914   3.150915   1.089222
     8  H    2.106031   3.137596   2.650914   3.150915   1.089222
     9  H    2.939176   2.946297   4.062597   2.243543   2.094608
    10  H    2.939176   2.946297   4.062597   2.243543   2.094608
                    6          7          8          9         10
     6  N    0.000000
     7  H    2.075951   0.000000
     8  H    2.075951   1.742917   0.000000
     9  H    1.005658   2.416860   2.960234   0.000000
    10  H    1.005658   2.960234   2.416860   1.676369   0.000000
 Stoichiometry    C2H5NO2
 Framework group  CS[SG(C2HNO2),X(H4)]
 Deg. of freedom    15
 Full point group                 CS      NOp   2
 Largest Abelian subgroup         CS      NOp   2
 Largest concise Abelian subgroup CS      NOp   2
                         Standard orientation:                         
 ---------------------------------------------------------------------
 Center     Atomic      Atomic             Coordinates (Angstroms)
 Number     Number       Type             X           Y           Z
 ---------------------------------------------------------------------
      1          6           0        0.000000    0.678907    0.000000
      2          8           0       -1.337854    0.533471    0.000000
      3          8           0        0.506518    1.764722    0.000000
      4          1           0       -1.547449   -0.408206   -0.000000
      5          6           0        0.827086   -0.604884   -0.000000
      6          7           0        0.142184   -1.872117   -0.000000
      7          1           0        1.477562   -0.542869    0.871458
      8          1           0        1.477562   -0.542869   -0.871458
      9          1           0       -0.357397   -2.115457    0.838184
     10          1           0       -0.357397   -2.115457   -0.838184
 ---------------------------------------------------------------------
 Rotational constants (GHZ):           9.9652158           4.0049802           2.9552908
 Leave Link  202 at Fri Jan 15 18:07:12 2021, MaxMem= 13421772800 cpu:               0.2 elap:               0.0
 (Enter /data2/software/Gaussian/g16_from_xuruiqin/g16/l301.exe)
 Standard basis: Jun-CC-pVTZ (5D, 7F)
 Ernie: Thresh=  0.10000D-02 Tol=  0.10000D-05 Strict=F.
 Ernie:  15 primitive shells out of 185 were deleted.
 There are   196 symmetry adapted cartesian basis functions of A'  symmetry.
 There are   104 symmetry adapted cartesian basis functions of A"  symmetry.
 There are   168 symmetry adapted basis functions of A'  symmetry.
 There are    97 symmetry adapted basis functions of A"  symmetry.
   265 basis functions,   395 primitive gaussians,   300 cartesian basis functions
    20 alpha electrons       20 beta electrons
       nuclear repulsion energy       180.0741256900 Hartrees.
 IExCor=    0 DFT=F Ex=HF Corr=None ExCW=0 ScaHFX=  1.000000
 ScaDFX=  1.000000  1.000000  1.000000  1.000000 ScalE2=  1.000000  1.000000
 IRadAn=      5 IRanWt=     -1 IRanGd=            0 ICorTp=0 IEmpDi=  4
 NAtoms=   10 NActive=   10 NUniq=    8 SFac= 1.56D+00 NAtFMM=   60 NAOKFM=F Big=F
 Integral buffers will be    131072 words long.
 Raffenetti 1 integral format.
 Two-electron integral symmetry is turned on.
 Leave Link  301 at Fri Jan 15 18:07:12 2021, MaxMem= 13421772800 cpu:               1.1 elap:               0.1
 (Enter /data2/software/Gaussian/g16_from_xuruiqin/g16/l302.exe)
 NPDir=0 NMtPBC=     1 NCelOv=     1 NCel=       1 NClECP=     1 NCelD=      1
         NCelK=      1 NCelE2=     1 NClLst=     1 CellRange=     0.0.
 One-electron integrals computed using PRISM.
 One-electron integral symmetry used in STVInt
 NBasis=   265 RedAO= T EigKep=  5.23D-05  NBF=   168    97
 NBsUse=   265 1.00D-06 EigRej= -1.00D+00 NBFU=   168    97
 Leave Link  302 at Fri Jan 15 18:07:12 2021, MaxMem= 13421772800 cpu:               5.7 elap:               0.2
 (Enter /data2/software/Gaussian/g16_from_xuruiqin/g16/l303.exe)
 DipDrv:  MaxL=1.
 Leave Link  303 at Fri Jan 15 18:07:12 2021, MaxMem= 13421772800 cpu:               0.9 elap:               0.1
 (Enter /data2/software/Gaussian/g16_from_xuruiqin/g16/l401.exe)
 ExpMin= 3.57D-02 ExpMax= 1.53D+04 ExpMxC= 5.22D+02 IAcc=3 IRadAn=         5 AccDes= 0.00D+00
 Harris functional with IExCor=  205 and IRadAn=       5 diagonalized for initial guess.
 HarFok:  IExCor=  205 AccDes= 0.00D+00 IRadAn=         5 IDoV= 1 UseB2=F ITyADJ=14
 ICtDFT=  3500011 ScaDFX=  1.000000  1.000000  1.000000  1.000000
 FoFCou: FMM=F IPFlag=           0 FMFlag=      100000 FMFlg1=           0
         NFxFlg=           0 DoJE=T BraDBF=F KetDBF=T FulRan=T
         wScrn=  0.000000 ICntrl=       500 IOpCl=  0 I1Cent=   200000004 NGrid=           0
         NMat0=    1 NMatS0=      1 NMatT0=    0 NMatD0=    1 NMtDS0=    0 NMtDT0=    0
 Petite list used in FoFCou.
 Harris En= -283.227354295600    
 JPrj=0 DoOrth=F DoCkMO=F.
 Initial guess orbital symmetries:
       Occupied  (A') (A') (A') (A') (A') (A') (A') (A') (A') (A')
                 (A') (A") (A') (A') (A") (A') (A") (A") (A') (A')
       Virtual   (A") (A') (A') (A") (A') (A') (A') (A') (A") (A")
                 (A') (A') (A') (A') (A") (A') (A') (A") (A') (A")
                 (A') (A') (A') (A") (A') (A") (A') (A') (A') (A")
                 (A') (A') (A") (A') (A') (A') (A") (A') (A") (A')
                 (A') (A") (A') (A') (A") (A') (A") (A') (A') (A')
                 (A') (A") (A') (A') (A") (A') (A") (A') (A") (A')
                 (A") (A') (A") (A') (A") (A') (A') (A') (A") (A')
                 (A') (A") (A") (A') (A') (A") (A') (A') (A") (A')
                 (A") (A") (A') (A') (A") (A') (A') (A") (A') (A")
                 (A") (A') (A') (A") (A') (A') (A') (A') (A") (A')
                 (A') (A') (A') (A') (A") (A") (A') (A') (A') (A")
                 (A') (A") (A') (A") (A") (A') (A') (A') (A") (A')
                 (A') (A") (A') (A') (A') (A") (A') (A') (A") (A")
                 (A') (A") (A') (A") (A') (A') (A") (A') (A") (A')
                 (A") (A') (A') (A") (A') (A") (A") (A') (A") (A")
                 (A') (A") (A') (A") (A') (A') (A") (A") (A') (A')
                 (A") (A') (A') (A") (A') (A') (A") (A') (A") (A')
                 (A") (A') (A') (A") (A') (A') (A") (A') (A") (A')
                 (A") (A') (A") (A') (A") (A') (A') (A") (A') (A')
                 (A') (A") (A') (A") (A') (A') (A") (A') (A') (A")
                 (A') (A') (A") (A') (A") (A') (A') (A") (A') (A')
                 (A') (A") (A') (A") (A') (A') (A") (A") (A") (A')
                 (A') (A') (A") (A") (A') (A") (A') (A") (A") (A')
                 (A") (A') (A") (A') (A') (A") (A') (A') (A') (A')
                 (A') (A') (A') (A') (A')
 The electronic state of the initial guess is 1-A'.
 Leave Link  401 at Fri Jan 15 18:07:13 2021, MaxMem= 13421772800 cpu:              12.3 elap:               0.5
 (Enter /data2/software/Gaussian/g16_from_xuruiqin/g16/l502.exe)
 Keep R1 ints in memory in symmetry-blocked form, NReq=933528469.
 FoFCou: FMM=F IPFlag=           0 FMFlag=           0 FMFlg1=           0
         NFxFlg=           0 DoJE=F BraDBF=F KetDBF=F FulRan=T
         wScrn=  0.000000 ICntrl=       600 IOpCl=  0 I1Cent=           0 NGrid=           0
         NMat0=    1 NMatS0=  35245 NMatT0=    0 NMatD0=    1 NMtDS0=    0 NMtDT0=    0
 Petite list used in FoFCou.
 Closed shell SCF:
 Using DIIS extrapolation, IDIIS=  1040.
 NGot= 13421772800 LenX= 13109177540 LenY= 13109087099
 Requested convergence on RMS density matrix=1.00D-08 within 128 cycles.
 Requested convergence on MAX density matrix=1.00D-06.
 Requested convergence on             energy=1.00D-06.
 No special actions if energy rises.

 Cycle   1  Pass 1  IDiag  1:
 E= -282.697849821084    
 DIIS: error= 2.48D-02 at cycle   1 NSaved=   1.
 NSaved= 1 IEnMin= 1 EnMin= -282.697849821084     IErMin= 1 ErrMin= 2.48D-02
 ErrMax= 2.48D-02  0.00D+00 EMaxC= 1.00D-01 BMatC= 5.88D-01 BMatP= 5.88D-01
 IDIUse=3 WtCom= 7.52D-01 WtEn= 2.48D-01
 Coeff-Com:  0.100D+01
 Coeff-En:   0.100D+01
 Coeff:      0.100D+01
 Gap=     0.396 Goal=   None    Shift=    0.000
 GapD=    0.396 DampG=1.000 DampE=0.500 DampFc=0.5000 IDamp=-1.
 Damping current iteration by 5.00D-01
 RMSDP=1.73D-03 MaxDP=4.68D-02              OVMax= 1.33D-01

 Cycle   2  Pass 1  IDiag  1:
 E= -282.824142960018     Delta-E=       -0.126293138934 Rises=F Damp=T
 DIIS: error= 1.46D-02 at cycle   2 NSaved=   2.
 NSaved= 2 IEnMin= 2 EnMin= -282.824142960018     IErMin= 2 ErrMin= 1.46D-02
 ErrMax= 1.46D-02  0.00D+00 EMaxC= 1.00D-01 BMatC= 1.18D-01 BMatP= 5.88D-01
 IDIUse=3 WtCom= 8.54D-01 WtEn= 1.46D-01
 Coeff-Com: -0.569D+00 0.157D+01
 Coeff-En:   0.000D+00 0.100D+01
 Coeff:     -0.486D+00 0.149D+01
 Gap=     0.468 Goal=   None    Shift=    0.000
 RMSDP=6.74D-04 MaxDP=2.85D-02 DE=-1.26D-01 OVMax= 5.34D-02

 Cycle   3  Pass 1  IDiag  1:
 E= -282.935747739383     Delta-E=       -0.111604779366 Rises=F Damp=F
 DIIS: error= 4.46D-03 at cycle   3 NSaved=   3.
 NSaved= 3 IEnMin= 3 EnMin= -282.935747739383     IErMin= 3 ErrMin= 4.46D-03
 ErrMax= 4.46D-03  0.00D+00 EMaxC= 1.00D-01 BMatC= 5.81D-03 BMatP= 1.18D-01
 IDIUse=3 WtCom= 9.55D-01 WtEn= 4.46D-02
 Coeff-Com: -0.185D+00 0.330D+00 0.855D+00
 Coeff-En:   0.000D+00 0.000D+00 0.100D+01
 Coeff:     -0.177D+00 0.316D+00 0.861D+00
 Gap=     0.451 Goal=   None    Shift=    0.000
 RMSDP=1.61D-04 MaxDP=6.98D-03 DE=-1.12D-01 OVMax= 2.37D-02

 Cycle   4  Pass 1  IDiag  1:
 E= -282.939468570644     Delta-E=       -0.003720831261 Rises=F Damp=F
 DIIS: error= 1.14D-03 at cycle   4 NSaved=   4.
 NSaved= 4 IEnMin= 4 EnMin= -282.939468570644     IErMin= 4 ErrMin= 1.14D-03
 ErrMax= 1.14D-03  0.00D+00 EMaxC= 1.00D-01 BMatC= 4.11D-04 BMatP= 5.81D-03
 IDIUse=3 WtCom= 9.89D-01 WtEn= 1.14D-02
 Coeff-Com: -0.410D-01 0.600D-01 0.276D+00 0.705D+00
 Coeff-En:   0.000D+00 0.000D+00 0.000D+00 0.100D+01
 Coeff:     -0.405D-01 0.593D-01 0.273D+00 0.708D+00
 Gap=     0.447 Goal=   None    Shift=    0.000
 RMSDP=4.54D-05 MaxDP=1.37D-03 DE=-3.72D-03 OVMax= 4.36D-03

 Cycle   5  Pass 1  IDiag  1:
 E= -282.939818885381     Delta-E=       -0.000350314736 Rises=F Damp=F
 DIIS: error= 2.72D-04 at cycle   5 NSaved=   5.
 NSaved= 5 IEnMin= 5 EnMin= -282.939818885381     IErMin= 5 ErrMin= 2.72D-04
 ErrMax= 2.72D-04  0.00D+00 EMaxC= 1.00D-01 BMatC= 2.46D-05 BMatP= 4.11D-04
 IDIUse=3 WtCom= 9.97D-01 WtEn= 2.72D-03
 Coeff-Com:  0.164D-01-0.292D-01-0.835D-01 0.903D-03 0.110D+01
 Coeff-En:   0.000D+00 0.000D+00 0.000D+00 0.000D+00 0.100D+01
 Coeff:      0.163D-01-0.292D-01-0.833D-01 0.901D-03 0.110D+01
 Gap=     0.448 Goal=   None    Shift=    0.000
 RMSDP=3.02D-05 MaxDP=9.43D-04 DE=-3.50D-04 OVMax= 3.67D-03

 Cycle   6  Pass 1  IDiag  1:
 E= -282.939869780228     Delta-E=       -0.000050894847 Rises=F Damp=F
 DIIS: error= 1.08D-04 at cycle   6 NSaved=   6.
 NSaved= 6 IEnMin= 6 EnMin= -282.939869780228     IErMin= 6 ErrMin= 1.08D-04
 ErrMax= 1.08D-04  0.00D+00 EMaxC= 1.00D-01 BMatC= 4.36D-06 BMatP= 2.46D-05
 IDIUse=3 WtCom= 9.99D-01 WtEn= 1.08D-03
 Coeff-Com:  0.842D-02-0.137D-01-0.500D-01-0.920D-01 0.241D+00 0.907D+00
 Coeff-En:   0.000D+00 0.000D+00 0.000D+00 0.000D+00 0.000D+00 0.100D+01
 Coeff:      0.841D-02-0.136D-01-0.500D-01-0.919D-01 0.240D+00 0.907D+00
 Gap=     0.448 Goal=   None    Shift=    0.000
 RMSDP=1.18D-05 MaxDP=3.68D-04 DE=-5.09D-05 OVMax= 1.09D-03

 Cycle   7  Pass 1  IDiag  1:
 E= -282.939877614602     Delta-E=       -0.000007834374 Rises=F Damp=F
 DIIS: error= 4.66D-05 at cycle   7 NSaved=   7.
 NSaved= 7 IEnMin= 7 EnMin= -282.939877614602     IErMin= 7 ErrMin= 4.66D-05
 ErrMax= 4.66D-05  0.00D+00 EMaxC= 1.00D-01 BMatC= 4.62D-07 BMatP= 4.36D-06
 IDIUse=1 WtCom= 1.00D+00 WtEn= 0.00D+00
 Coeff-Com: -0.192D-02 0.340D-02 0.128D-01-0.421D-02-0.120D+00-0.442D-01
 Coeff-Com:  0.115D+01
 Coeff:     -0.192D-02 0.340D-02 0.128D-01-0.421D-02-0.120D+00-0.442D-01
 Coeff:      0.115D+01
 Gap=     0.448 Goal=   None    Shift=    0.000
 RMSDP=5.02D-06 MaxDP=1.69D-04 DE=-7.83D-06 OVMax= 6.97D-04

 Cycle   8  Pass 1  IDiag  1:
 E= -282.939878911790     Delta-E=       -0.000001297188 Rises=F Damp=F
 DIIS: error= 1.51D-05 at cycle   8 NSaved=   8.
 NSaved= 8 IEnMin= 8 EnMin= -282.939878911790     IErMin= 8 ErrMin= 1.51D-05
 ErrMax= 1.51D-05  0.00D+00 EMaxC= 1.00D-01 BMatC= 7.33D-08 BMatP= 4.62D-07
 IDIUse=1 WtCom= 1.00D+00 WtEn= 0.00D+00
 Coeff-Com: -0.113D-02 0.182D-02 0.738D-02 0.867D-02-0.290D-01-0.122D+00
 Coeff-Com: -0.271D-01 0.116D+01
 Coeff:     -0.113D-02 0.182D-02 0.738D-02 0.867D-02-0.290D-01-0.122D+00
 Coeff:     -0.271D-01 0.116D+01
 Gap=     0.448 Goal=   None    Shift=    0.000
 RMSDP=1.95D-06 MaxDP=6.33D-05 DE=-1.30D-06 OVMax= 2.92D-04

 Cycle   9  Pass 1  IDiag  1:
 E= -282.939879111002     Delta-E=       -0.000000199211 Rises=F Damp=F
 DIIS: error= 5.23D-06 at cycle   9 NSaved=   9.
 NSaved= 9 IEnMin= 9 EnMin= -282.939879111002     IErMin= 9 ErrMin= 5.23D-06
 ErrMax= 5.23D-06  0.00D+00 EMaxC= 1.00D-01 BMatC= 9.48D-09 BMatP= 7.33D-08
 IDIUse=1 WtCom= 1.00D+00 WtEn= 0.00D+00
 Coeff-Com:  0.186D-04-0.771D-04 0.519D-05 0.140D-02 0.110D-01-0.181D-01
 Coeff-Com: -0.145D+00 0.197D+00 0.954D+00
 Coeff:      0.186D-04-0.771D-04 0.519D-05 0.140D-02 0.110D-01-0.181D-01
 Coeff:     -0.145D+00 0.197D+00 0.954D+00
 Gap=     0.448 Goal=   None    Shift=    0.000
 RMSDP=4.73D-07 MaxDP=1.87D-05 DE=-1.99D-07 OVMax= 8.53D-05

 Cycle  10  Pass 1  IDiag  1:
 E= -282.939879131085     Delta-E=       -0.000000020083 Rises=F Damp=F
 DIIS: error= 1.95D-06 at cycle  10 NSaved=  10.
 NSaved=10 IEnMin=10 EnMin= -282.939879131085     IErMin=10 ErrMin= 1.95D-06
 ErrMax= 1.95D-06  0.00D+00 EMaxC= 1.00D-01 BMatC= 1.06D-09 BMatP= 9.48D-09
 IDIUse=1 WtCom= 1.00D+00 WtEn= 0.00D+00
 Coeff-Com:  0.179D-03-0.294D-03-0.109D-02-0.166D-02 0.544D-02 0.173D-01
 Coeff-Com:  0.296D-02-0.175D+00 0.241D-01 0.113D+01
 Coeff:      0.179D-03-0.294D-03-0.109D-02-0.166D-02 0.544D-02 0.173D-01
 Coeff:      0.296D-02-0.175D+00 0.241D-01 0.113D+01
 Gap=     0.448 Goal=   None    Shift=    0.000
 RMSDP=2.51D-07 MaxDP=8.21D-06 DE=-2.01D-08 OVMax= 2.78D-05

 Cycle  11  Pass 1  IDiag  1:
 E= -282.939879133598     Delta-E=       -0.000000002513 Rises=F Damp=F
 DIIS: error= 3.77D-07 at cycle  11 NSaved=  11.
 NSaved=11 IEnMin=11 EnMin= -282.939879133598     IErMin=11 ErrMin= 3.77D-07
 ErrMax= 3.77D-07  0.00D+00 EMaxC= 1.00D-01 BMatC= 6.06D-11 BMatP= 1.06D-09
 IDIUse=1 WtCom= 1.00D+00 WtEn= 0.00D+00
 Coeff-Com: -0.346D-05 0.795D-05 0.581D-04-0.418D-04-0.942D-03 0.817D-04
 Coeff-Com:  0.104D-01-0.250D-02-0.764D-01-0.785D-01 0.115D+01
 Coeff:     -0.346D-05 0.795D-05 0.581D-04-0.418D-04-0.942D-03 0.817D-04
 Coeff:      0.104D-01-0.250D-02-0.764D-01-0.785D-01 0.115D+01
 Gap=     0.448 Goal=   None    Shift=    0.000
 RMSDP=8.26D-08 MaxDP=3.57D-06 DE=-2.51D-09 OVMax= 5.74D-06

 Cycle  12  Pass 1  IDiag  1:
 E= -282.939879133748     Delta-E=       -0.000000000150 Rises=F Damp=F
 DIIS: error= 1.18D-07 at cycle  12 NSaved=  12.
 NSaved=12 IEnMin=12 EnMin= -282.939879133748     IErMin=12 ErrMin= 1.18D-07
 ErrMax= 1.18D-07  0.00D+00 EMaxC= 1.00D-01 BMatC= 4.44D-12 BMatP= 6.06D-11
 IDIUse=1 WtCom= 1.00D+00 WtEn= 0.00D+00
 Coeff-Com: -0.119D-04 0.191D-04 0.813D-04 0.114D-03-0.343D-03-0.127D-02
 Coeff-Com: -0.115D-02 0.147D-01 0.208D-02-0.858D-01-0.655D-01 0.114D+01
 Coeff:     -0.119D-04 0.191D-04 0.813D-04 0.114D-03-0.343D-03-0.127D-02
 Coeff:     -0.115D-02 0.147D-01 0.208D-02-0.858D-01-0.655D-01 0.114D+01
 Gap=     0.448 Goal=   None    Shift=    0.000
 RMSDP=1.91D-08 MaxDP=7.04D-07 DE=-1.50D-10 OVMax= 1.24D-06

 Cycle  13  Pass 1  IDiag  1:
 E= -282.939879133760     Delta-E=       -0.000000000012 Rises=F Damp=F
 DIIS: error= 3.84D-08 at cycle  13 NSaved=  13.
 NSaved=13 IEnMin=13 EnMin= -282.939879133760     IErMin=13 ErrMin= 3.84D-08
 ErrMax= 3.84D-08  0.00D+00 EMaxC= 1.00D-01 BMatC= 3.52D-13 BMatP= 4.44D-12
 IDIUse=1 WtCom= 1.00D+00 WtEn= 0.00D+00
 Coeff-Com:  0.392D-06-0.904D-06-0.380D-05 0.433D-06 0.782D-04 0.673D-05
 Coeff-Com: -0.101D-02 0.615D-03 0.639D-02 0.326D-02-0.944D-01 0.494D-01
 Coeff-Com:  0.104D+01
 Coeff:      0.392D-06-0.904D-06-0.380D-05 0.433D-06 0.782D-04 0.673D-05
 Coeff:     -0.101D-02 0.615D-03 0.639D-02 0.326D-02-0.944D-01 0.494D-01
 Coeff:      0.104D+01
 Gap=     0.448 Goal=   None    Shift=    0.000
 RMSDP=3.57D-09 MaxDP=9.87D-08 DE=-1.21D-11 OVMax= 3.23D-07

 SCF Done:  E(RHF) =  -282.939879134     A.U. after   13 cycles
            NFock= 13  Conv=0.36D-08     -V/T= 2.0015
 KE= 2.825276870978D+02 PE=-1.026199205856D+03 EE= 2.806575139344D+02
 Leave Link  502 at Fri Jan 15 18:07:22 2021, MaxMem= 13421772800 cpu:             145.8 elap:               9.1
 (Enter /data2/software/Gaussian/g16_from_xuruiqin/g16/l801.exe)
 Windowed orbitals will be sorted by symmetry type.
 ExpMin= 3.57D-02 ExpMax= 1.53D+04 ExpMxC= 5.22D+02 IAcc=3 IRadAn=         5 AccDes= 0.00D+00
 HarFok:  IExCor=  205 AccDes= 0.00D+00 IRadAn=         5 IDoV=-2 UseB2=F ITyADJ=14
 ICtDFT= 12500011 ScaDFX=  1.000000  1.000000  1.000000  1.000000
 Largest valence mixing into a core orbital is  2.05D-04
 Largest core mixing into a valence orbital is  3.08D-05
 Range of M.O.s used for correlation:     6   265
 NBasis=   265 NAE=    20 NBE=    20 NFC=     5 NFV=     0
 NROrb=    260 NOA=    15 NOB=    15 NVA=   245 NVB=   245

 **** Warning!!: The largest alpha MO coefficient is  0.33019483D+02

 Leave Link  801 at Fri Jan 15 18:07:22 2021, MaxMem= 13421772800 cpu:               1.2 elap:               0.1
 (Enter /data2/software/Gaussian/g16_from_xuruiqin/g16/l804.exe)
 Closed-shell transformation, MDV= 13421772800 ITran=4 ISComp=2.
 Unit  1 TFree=       2333239 TCopy=       1236586.
 Semi-Direct transformation.
 ModeAB=           4 MOrb=            15 LenV=   13419944897
 LASXX=     63877396 LTotXX=    63877396 LenRXX=   128545993
 LTotAB=    64668597 MaxLAS=   145041000 LenRXY=           0
 NonZer=   192423389 LenScr=   289112064 LnRSAI=   145041000
 LnScr1=   218136576 LExtra=           0 Total=    780835633
 MaxDsk=          -1 SrtSym=           T ITran=            4
 DoSDTr:  NPSUse= 28
 JobTyp=0 Pass  1:  I=   1 to  15.
 (rs|ai) integrals will be sorted in core.
 Complete sort for first half transformation.
 First half transformation complete.
 Begin second half transformation for I=  10.
 Complete sort for second half transformation.
 Second half transformation complete.
 Spin components of T(2) and E(2):
     alpha-alpha T2 =       0.3623915160D-01 E2=     -0.1284545180D+00
     alpha-beta  T2 =       0.2002057343D+00 E2=     -0.7621287564D+00
     beta-beta   T2 =       0.3623915160D-01 E2=     -0.1284545180D+00
 ANorm=    0.1128132987D+01
 E2 =    -0.1019037792D+01 EUMP2 =    -0.28395891692616D+03
 Leave Link  804 at Fri Jan 15 18:08:08 2021, MaxMem= 13421772800 cpu:            1234.4 elap:              45.3
 (Enter /data2/software/Gaussian/g16_from_xuruiqin/g16/l913.exe)
 CIDS:  MDV= 13421772800.
 Frozen-core window:  NFC=   5 NFV=   0.
 IFCWin=0 IBDFC=1 NFBD=     0     0 NFCmp=     0     0 NFFFC=     0     0
 Using DD3R+UMP44R for 1st iteration.
 Using DD4RQ for 2nd and later iterations.
 Keep R2 and R3 ints in memory in symmetry-blocked form, NReq=937075696.
 FoFCou: FMM=F IPFlag=           0 FMFlag=           0 FMFlg1=           0
         NFxFlg=           0 DoJE=F BraDBF=F KetDBF=F FulRan=T
         wScrn=  0.000000 ICntrl=       600 IOpCl=  0 I1Cent=           0 NGrid=           0
         NMat0=    1 NMatS0=  35245 NMatT0=    0 NMatD0=    1 NMtDS0=    0 NMtDT0=    0
 Petite list used in FoFCou.
 CIDS: In Core Option IDoMem=           1.
 CCSD(T)
 =======
 Iterations=  50 Convergence= 0.100D-06
 Produce multiple copies of IABC intergrals
 Iteration Nr.   1
 **********************
 DD1Dir will call FoFMem   1 times, MxPair=       240
 NAB=   120 NAA=     0 NBB=     0.
 MP4(R+Q)=  0.22481350D-01
 Maximum subspace dimension=  5
 A-vector RMS=  2.2147934D-03 Max=  3.0933329D-02 conv= 1.00D-05.
 RLE energy=       -1.0064912660
 E3=       -0.10333072D-01        EUMP3=      -0.28396925000D+03
 E4(DQ)=    0.18213699D-02        UMP4(DQ)=   -0.28396742863D+03
 E4(SDQ)=  -0.97544138D-02        UMP4(SDQ)=  -0.28397900441D+03
 VARIATIONAL ENERGIES WITH THE FIRST-ORDER WAVEFUNCTION:
 DE(Corr)=  -1.0063352     E(Corr)=     -283.94621430    
 NORM(A)=   0.11277989D+01
 Iteration Nr.   2
 **********************
 DD1Dir will call FoFMem   1 times, MxPair=       240
 NAB=   120 NAA=     0 NBB=     0.
 A-vector RMS=  3.3033506D-04 Max=  7.5787826D-03 conv= 1.00D-05.
 RLE energy=       -1.0342027322
 DE(Corr)=  -1.0339251     E(CORR)=     -283.97380425     Delta=-2.76D-02
 NORM(A)=   0.11373399D+01
 Iteration Nr.   3
 **********************
 DD1Dir will call FoFMem   1 times, MxPair=       240
 NAB=   120 NAA=     0 NBB=     0.
 A-vector RMS=  4.2245147D-04 Max=  6.7188996D-03 conv= 1.00D-05.
 RLE energy=       -1.0357445903
 DE(Corr)=  -1.0333643     E(CORR)=     -283.97324348     Delta= 5.61D-04
 NORM(A)=   0.11399564D+01
 Iteration Nr.   4
 **********************
 DD1Dir will call FoFMem   1 times, MxPair=       240
 NAB=   120 NAA=     0 NBB=     0.
 A-vector RMS=  7.5321836D-05 Max=  1.0544510D-03 conv= 1.00D-05.
 RLE energy=       -1.0359114867
 DE(Corr)=  -1.0357210     E(CORR)=     -283.97560012     Delta=-2.36D-03
 NORM(A)=   0.11407610D+01
 Iteration Nr.   5
 **********************
 DD1Dir will call FoFMem   1 times, MxPair=       240
 NAB=   120 NAA=     0 NBB=     0.
 A-vector RMS=  4.5440128D-05 Max=  5.2959104D-04 conv= 1.00D-05.
 RLE energy=       -1.0360204396
 DE(Corr)=  -1.0359784     E(CORR)=     -283.97585756     Delta=-2.57D-04
 NORM(A)=   0.11410200D+01
 Iteration Nr.   6
 **********************
 DD1Dir will call FoFMem   1 times, MxPair=       240
 NAB=   120 NAA=     0 NBB=     0.
 A-vector RMS=  1.5418910D-05 Max=  2.1205114D-04 conv= 1.00D-05.
 RLE energy=       -1.0360207509
 DE(Corr)=  -1.0360021     E(CORR)=     -283.97588124     Delta=-2.37D-05
 NORM(A)=   0.11410620D+01
 Iteration Nr.   7
 **********************
 DD1Dir will call FoFMem   1 times, MxPair=       240
 NAB=   120 NAA=     0 NBB=     0.
 A-vector RMS=  6.0942854D-06 Max=  1.0964184D-04 conv= 1.00D-05.
 RLE energy=       -1.0359881360
 DE(Corr)=  -1.0360032     E(CORR)=     -283.97588237     Delta=-1.13D-06
 NORM(A)=   0.11410617D+01
 Iteration Nr.   8
 **********************
 DD1Dir will call FoFMem   1 times, MxPair=       240
 NAB=   120 NAA=     0 NBB=     0.
 A-vector RMS=  1.8220151D-06 Max=  2.6855526D-05 conv= 1.00D-05.
 RLE energy=       -1.0360021690
 DE(Corr)=  -1.0360033     E(CORR)=     -283.97588240     Delta=-2.76D-08
 NORM(A)=   0.11410672D+01
 Iteration Nr.   9
 **********************
 DD1Dir will call FoFMem   1 times, MxPair=       240
 NAB=   120 NAA=     0 NBB=     0.
 A-vector RMS=  7.1957171D-07 Max=  1.2173007D-05 conv= 1.00D-05.
 RLE energy=       -1.0360009014
 DE(Corr)=  -1.0360010     E(CORR)=     -283.97588018     Delta= 2.22D-06
 NORM(A)=   0.11410675D+01
 Iteration Nr.  10
 **********************
 DD1Dir will call FoFMem   1 times, MxPair=       240
 NAB=   120 NAA=     0 NBB=     0.
 A-vector RMS=  2.8643237D-07 Max=  4.0247661D-06 conv= 1.00D-05.
 RLE energy=       -1.0360019823
 DE(Corr)=  -1.0360022     E(CORR)=     -283.97588135     Delta=-1.17D-06
 NORM(A)=   0.11410679D+01
 Iteration Nr.  11
 **********************
 DD1Dir will call FoFMem   1 times, MxPair=       240
 NAB=   120 NAA=     0 NBB=     0.
 A-vector RMS=  1.3677533D-07 Max=  1.8534598D-06 conv= 1.00D-05.
 RLE energy=       -1.0360022634
 DE(Corr)=  -1.0360021     E(CORR)=     -283.97588127     Delta= 8.54D-08
 NORM(A)=   0.11410682D+01
 CI/CC converged in   11 iterations to DelEn= 8.54D-08 Conv= 1.00D-07 ErrA1= 1.37D-07 Conv= 1.00D-05
 Wavefunction amplitudes converged. E(Corr)=     -283.97588127    
 Largest amplitude= 4.59D-02
 IPart= 27 IA=   14   10.35% done.
 IPart= 21 IA=   27   20.14% done.
 IPart= 24 IA=   41   30.04% done.
 IPart=  7 IA=   57   40.56% done.
 IPart= 15 IA=   73   50.22% done.
 IPart= 20 IA=   91   60.07% done.
 IPart=  7 IA=  112   70.19% done.
 IPart=  9 IA=  137   80.31% done.
 IPart= 16 IA=  169   90.21% done.
 Time for triples=   274669.57 seconds.
 T4(CCSD)= -0.46339552D-01
 T5(CCSD)=  0.21738345D-02
 CCSD(T)= -0.28402004698D+03
 Discarding MO integrals.
 Leave Link  913 at Fri Jan 15 21:15:21 2021, MaxMem= 13421772800 cpu:          304328.9 elap:           11233.5
 (Enter /data2/software/Gaussian/g16_from_xuruiqin/g16/l601.exe)
 Copying SCF densities to generalized density rwf, IOpCl= 0 IROHF=0.

 **********************************************************************

            Population analysis using the SCF Density.

 **********************************************************************

 Orbital symmetries:
       Occupied  (A') (A') (A') (A') (A') (A') (A') (A') (A') (A')
                 (A') (A") (A') (A") (A') (A') (A") (A') (A") (A')
       Virtual   (A') (A') (A") (A') (A') (A") (A') (A') (A") (A')
                 (A") (A') (A") (A') (A') (A') (A') (A") (A') (A')
                 (A") (A") (A') (A') (A') (A') (A") (A') (A") (A')
                 (A") (A') (A') (A') (A") (A') (A') (A') (A") (A')
                 (A") (A') (A') (A') (A") (A") (A') (A') (A') (A')
                 (A') (A") (A") (A') (A') (A') (A") (A') (A") (A')
                 (A") (A') (A') (A") (A') (A") (A") (A') (A') (A')
                 (A') (A") (A') (A") (A') (A") (A') (A") (A') (A')
                 (A") (A") (A') (A") (A') (A') (A") (A') (A') (A")
                 (A") (A') (A') (A") (A') (A') (A') (A") (A') (A')
                 (A') (A') (A') (A") (A') (A") (A') (A') (A') (A")
                 (A') (A") (A') (A") (A") (A') (A') (A') (A") (A')
                 (A') (A") (A') (A') (A") (A') (A') (A') (A") (A")
                 (A') (A") (A') (A") (A') (A") (A') (A") (A') (A')
                 (A") (A') (A") (A') (A") (A") (A') (A") (A') (A")
                 (A") (A') (A') (A") (A') (A') (A") (A") (A') (A")
                 (A') (A') (A') (A") (A') (A") (A') (A") (A') (A')
                 (A") (A") (A') (A') (A') (A') (A") (A') (A') (A")
                 (A") (A') (A') (A") (A") (A') (A") (A') (A') (A')
                 (A") (A') (A') (A') (A") (A") (A') (A') (A") (A')
                 (A') (A') (A") (A") (A') (A') (A') (A") (A') (A')
                 (A") (A') (A") (A') (A') (A') (A") (A") (A') (A")
                 (A') (A") (A') (A") (A") (A') (A') (A") (A") (A')
                 (A") (A') (A") (A') (A") (A') (A') (A') (A') (A')
                 (A') (A') (A') (A') (A')
 The electronic state is 1-A'.
 Alpha  occ. eigenvalues --  -20.61657 -20.54204 -15.58006 -11.38188 -11.29079
 Alpha  occ. eigenvalues --   -1.46585  -1.36705  -1.22038  -0.97938  -0.83144
 Alpha  occ. eigenvalues --   -0.74466  -0.72621  -0.67165  -0.63556  -0.62325
 Alpha  occ. eigenvalues --   -0.57039  -0.56015  -0.48598  -0.47615  -0.40881
 Alpha virt. eigenvalues --    0.03931   0.05994   0.06856   0.07722   0.09887
 Alpha virt. eigenvalues --    0.10369   0.10652   0.11451   0.12269   0.15747
 Alpha virt. eigenvalues --    0.16620   0.17471   0.19940   0.20265   0.21415
 Alpha virt. eigenvalues --    0.23195   0.23779   0.24520   0.26483   0.27441
 Alpha virt. eigenvalues --    0.27626   0.29372   0.29702   0.30772   0.31687
 Alpha virt. eigenvalues --    0.33430   0.34482   0.37760   0.39033   0.39819
 Alpha virt. eigenvalues --    0.43009   0.43060   0.44907   0.47198   0.47917
 Alpha virt. eigenvalues --    0.49665   0.53015   0.54170   0.55293   0.55740
 Alpha virt. eigenvalues --    0.57987   0.58851   0.62483   0.65330   0.65861
 Alpha virt. eigenvalues --    0.66761   0.68031   0.71506   0.73773   0.75287
 Alpha virt. eigenvalues --    0.76615   0.77434   0.77892   0.78008   0.79721
 Alpha virt. eigenvalues --    0.81994   0.82571   0.83703   0.86378   0.89910
 Alpha virt. eigenvalues --    0.90675   0.92380   0.94298   0.94993   0.98949
 Alpha virt. eigenvalues --    0.99772   1.03974   1.04726   1.06169   1.09270
 Alpha virt. eigenvalues --    1.11465   1.16072   1.17415   1.18948   1.20678
 Alpha virt. eigenvalues --    1.24641   1.28147   1.28613   1.29378   1.30081
 Alpha virt. eigenvalues --    1.34601   1.38662   1.40186   1.40862   1.42772
 Alpha virt. eigenvalues --    1.45941   1.46851   1.48526   1.51708   1.54202
 Alpha virt. eigenvalues --    1.56514   1.58038   1.59722   1.62003   1.65330
 Alpha virt. eigenvalues --    1.67583   1.73444   1.76700   1.77249   1.79194
 Alpha virt. eigenvalues --    1.85648   1.87764   1.94468   1.99234   2.00790
 Alpha virt. eigenvalues --    2.06410   2.09871   2.12623   2.17203   2.18851
 Alpha virt. eigenvalues --    2.27140   2.28123   2.36299   2.41467   2.46937
 Alpha virt. eigenvalues --    2.50164   2.56960   2.61484   2.63532   2.72338
 Alpha virt. eigenvalues --    2.75686   2.87568   2.90724   2.97436   3.04464
 Alpha virt. eigenvalues --    3.06647   3.15055   3.17140   3.19316   3.23223
 Alpha virt. eigenvalues --    3.27455   3.28600   3.32111   3.36527   3.37357
 Alpha virt. eigenvalues --    3.42052   3.43188   3.48510   3.50299   3.51953
 Alpha virt. eigenvalues --    3.52857   3.54230   3.56421   3.59262   3.62765
 Alpha virt. eigenvalues --    3.64761   3.66538   3.69275   3.72102   3.72903
 Alpha virt. eigenvalues --    3.74622   3.80142   3.82569   3.83348   3.88029
 Alpha virt. eigenvalues --    3.89719   3.92717   3.94376   3.96607   4.04671
 Alpha virt. eigenvalues --    4.05487   4.10228   4.13512   4.18003   4.19081
 Alpha virt. eigenvalues --    4.23059   4.24740   4.25255   4.29457   4.34332
 Alpha virt. eigenvalues --    4.35774   4.38645   4.40709   4.46314   4.47461
 Alpha virt. eigenvalues --    4.50540   4.55435   4.58681   4.62028   4.63001
 Alpha virt. eigenvalues --    4.67094   4.68157   4.73079   4.75442   4.77715
 Alpha virt. eigenvalues --    4.79186   4.83823   4.84888   4.93402   5.00844
 Alpha virt. eigenvalues --    5.01663   5.10351   5.17470   5.19295   5.26978
 Alpha virt. eigenvalues --    5.28349   5.33685   5.40705   5.50566   5.51092
 Alpha virt. eigenvalues --    5.53976   5.58549   5.61525   5.64805   5.66616
 Alpha virt. eigenvalues --    5.78064   5.82934   5.85162   5.86862   5.97585
 Alpha virt. eigenvalues --    6.10292   6.10363   6.11487   6.12902   6.25989
 Alpha virt. eigenvalues --    6.26567   6.35563   6.39870   6.47283   6.48958
 Alpha virt. eigenvalues --    6.65075   6.70834   6.73410   6.82013   6.98940
 Alpha virt. eigenvalues --    7.04551   7.11361   7.16313   7.24835   7.27064
 Alpha virt. eigenvalues --    7.34957   7.36630   7.44179   7.46953   7.50648
 Alpha virt. eigenvalues --    7.56849   7.67999   7.73051   7.92950   8.07350
 Alpha virt. eigenvalues --   12.10853  13.55472  14.18082  14.66098  14.79044
          Condensed to atoms (all electrons):
               1          2          3          4          5          6
     1  C    4.610899   0.198578   0.548669   0.041001   0.282880  -0.021120
     2  O    0.198578   8.076248  -0.112790   0.240834  -0.035132  -0.022014
     3  O    0.548669  -0.112790   8.070256   0.004414  -0.042063  -0.000305
     4  H    0.041001   0.240834   0.004414   0.501691  -0.021447   0.010516
     5  C    0.282880  -0.035132  -0.042063  -0.021447   4.829385   0.243615
     6  N   -0.021120  -0.022014  -0.000305   0.010516   0.243615   6.625649
     7  H   -0.011342   0.000548  -0.003967   0.000271   0.417579  -0.043719
     8  H   -0.011342   0.000548  -0.003967   0.000271   0.417579  -0.043719
     9  H    0.001155  -0.001951  -0.000241   0.000654  -0.010915   0.376329
    10  H    0.001155  -0.001951  -0.000241   0.000654  -0.010915   0.376329
               7          8          9         10
     1  C   -0.011342  -0.011342   0.001155   0.001155
     2  O    0.000548   0.000548  -0.001951  -0.001951
     3  O   -0.003967  -0.003967  -0.000241  -0.000241
     4  H    0.000271   0.000271   0.000654   0.000654
     5  C    0.417579   0.417579  -0.010915  -0.010915
     6  N   -0.043719  -0.043719   0.376329   0.376329
     7  H    0.437544  -0.009615  -0.002872   0.004400
     8  H   -0.009615   0.437544   0.004400  -0.002872
     9  H   -0.002872   0.004400   0.493185  -0.045672
    10  H    0.004400  -0.002872  -0.045672   0.493185
 Mulliken charges:
               1
     1  C    0.359468
     2  O   -0.342918
     3  O   -0.459763
     4  H    0.221142
     5  C   -0.070566
     6  N   -0.501562
     7  H    0.211171
     8  H    0.211171
     9  H    0.185928
    10  H    0.185928
 Sum of Mulliken charges =  -0.00000
 Mulliken charges with hydrogens summed into heavy atoms:
               1
     1  C    0.359468
     2  O   -0.121776
     3  O   -0.459763
     5  C    0.351777
     6  N   -0.129705
 Electronic spatial extent (au):  <R**2>=            416.4321
 Charge=             -0.0000 electrons
 Dipole moment (field-independent basis, Debye):
    X=             -0.9887    Y=             -4.5648    Z=             -0.0000  Tot=              4.6706
 Quadrupole moment (field-independent basis, Debye-Ang):
   XX=            -29.9012   YY=            -37.6215   ZZ=            -26.9255
   XY=              3.1236   XZ=             -0.0000   YZ=              0.0000
 Traceless Quadrupole moment (field-independent basis, Debye-Ang):
   XX=              1.5815   YY=             -6.1388   ZZ=              4.5573
   XY=              3.1236   XZ=             -0.0000   YZ=              0.0000
 Octapole moment (field-independent basis, Debye-Ang**2):
  XXX=             -3.4380  YYY=             -6.4854  ZZZ=             -0.0000  XYY=            -13.0776
  XXY=             -5.3354  XXZ=             -0.0000  XZZ=             -0.5320  YZZ=             -3.4472
  YYZ=              0.0000  XYZ=             -0.0000
 Hexadecapole moment (field-independent basis, Debye-Ang**3):
 XXXX=           -140.6166 YYYY=           -363.0835 ZZZZ=            -33.9733 XXXY=             14.9882
 XXXZ=             -0.0000 YYYX=             24.1469 YYYZ=             -0.0000 ZZZX=              0.0000
 ZZZY=             -0.0000 XXYY=            -83.3556 XXZZ=            -28.4640 YYZZ=            -51.3259
 XXYZ=              0.0000 YYXZ=              0.0000 ZZXY=              4.3460
 N-N= 1.800741256900D+02 E-N=-1.026199203829D+03  KE= 2.825276870978D+02
 Symmetry A'   KE= 2.697391684255D+02
 Symmetry A"   KE= 1.278851867226D+01
 Leave Link  601 at Fri Jan 15 21:15:22 2021, MaxMem= 13421772800 cpu:              13.4 elap:               0.5
 (Enter /data2/software/Gaussian/g16_from_xuruiqin/g16/l9999.exe)
 Unable to Open any file for archive entry.
 1\1\GINC-CPU01\SP\RCCSD(T)-FC\Jun-CC-pVTZ\C2H5N1O2\SHUCHONG\15-Jan-202
 1\0\\#p CCSD(T)/jun-cc-pvtz\\VII_SP\\0,1\C\O,1,1.3457355\O,1,1.1981468
 1,2,121.21259871\H,2,0.96472033,1,108.75235793,3,180.,0\C,1,1.52715094
 ,3,122.19981511,2,180.,0\N,5,1.44047578,1,118.81834226,3,180.,0\H,5,1.
 08922214,1,105.99599411,3,56.33573548,0\H,5,1.08922214,1,105.99599411,
 3,-56.33573548,0\H,6,1.0056583,5,116.68391241,1,-68.87806903,0\H,6,1.0
 056583,5,116.68391241,1,68.87806903,0\\Version=ES64L-G16RevC.01\State=
 1-A'\HF=-282.9398791\MP2=-283.9589169\MP3=-283.96925\MP4D=-283.98991\M
 P4DQ=-283.9674286\MP4SDQ=-283.9790044\CCSD=-283.9758813\CCSD(T)=-284.0
 20047\RMSD=3.569e-09\PG=CS [SG(C2H1N1O2),X(H4)]\\@
 The archive entry for this job was punched.


 YE HAVE SOWN MUCH, AND BRING IN LITTLE.
 YE EAT, BUT YE HAVE NOT ENOUGH.
 YE DRINK, BUT YE ARE NOT FILLED WITH DRINK.
 YE CLOTHE YOU, BUT THERE IS NONE WARM.
 AND HE THAT EARNETH WAGES EARNETH WAGES TO PUT
 IT INTO A BAG WITH HOLES.
                                     HAGGAI I,6
 Job cpu time:       3 days 12 hours 56 minutes 15.8 seconds.
 Elapsed time:       0 days  3 hours  8 minutes 10.7 seconds.
 File lengths (MBytes):  RWF=   6102 Int=      0 D2E=      0 Chk=      6 Scr=      1
 Normal termination of Gaussian 16 at Fri Jan 15 21:15:23 2021.
