 Entering Gaussian System, Link 0=g09
 Initial command:
 /share/pub/jeff/software/g09/g09/l1.exe "/share/home/jiangzhongming/tmp/Gau-39585.inp" -scrdir="/share/home/jiangzhongming/tmp/"
 Entering Link 1 = /share/pub/jeff/software/g09/g09/l1.exe PID=     39587.
  
 Copyright (c) 1988,1990,1992,1993,1995,1998,2003,2009,2015,
            Gaussian, Inc.  All Rights Reserved.
  
 This is part of the Gaussian(R) 09 program.  It is based on
 the Gaussian(R) 03 system (copyright 2003, Gaussian, Inc.),
 the Gaussian(R) 98 system (copyright 1998, Gaussian, Inc.),
 the Gaussian(R) 94 system (copyright 1995, Gaussian, Inc.),
 the Gaussian 92(TM) system (copyright 1992, Gaussian, Inc.),
 the Gaussian 90(TM) system (copyright 1990, Gaussian, Inc.),
 the Gaussian 88(TM) system (copyright 1988, Gaussian, Inc.),
 the Gaussian 86(TM) system (copyright 1986, Carnegie Mellon
 University), and the Gaussian 82(TM) system (copyright 1983,
 Carnegie Mellon University). Gaussian is a federally registered
 trademark of Gaussian, Inc.
  
 This software contains proprietary and confidential information,
 including trade secrets, belonging to Gaussian, Inc.
  
 This software is provided under written license and may be
 used, copied, transmitted, or stored only in accord with that
 written license.
  
 The following legend is applicable only to US Government
 contracts under FAR:
  
                    RESTRICTED RIGHTS LEGEND
  
 Use, reproduction and disclosure by the US Government is
 subject to restrictions as set forth in subparagraphs (a)
 and (c) of the Commercial Computer Software - Restricted
 Rights clause in FAR 52.227-19.
  
 Gaussian, Inc.
 340 Quinnipiac St., Bldg. 40, Wallingford CT 06492
  
  
 ---------------------------------------------------------------
 Warning -- This program may not be used in any manner that
 competes with the business of Gaussian, Inc. or will provide
 assistance to any competitor of Gaussian, Inc.  The licensee
 of this program is prohibited from giving any competitor of
 Gaussian, Inc. access to this program.  By using this program,
 the user acknowledges that Gaussian, Inc. is engaged in the
 business of creating and licensing software in the field of
 computational chemistry and represents and warrants to the
 licensee that it is not a competitor of Gaussian, Inc. and that
 it will not use this program in any manner prohibited above.
 ---------------------------------------------------------------
  

 Cite this work as:
 Gaussian 09, Revision E.01,
 M. J. Frisch, G. W. Trucks, H. B. Schlegel, G. E. Scuseria, 
 M. A. Robb, J. R. Cheeseman, G. Scalmani, V. Barone, B. Mennucci, 
 G. A. Petersson, H. Nakatsuji, M. Caricato, X. Li, H. P. Hratchian, 
 A. F. Izmaylov, J. Bloino, G. Zheng, J. L. Sonnenberg, M. Hada, 
 M. Ehara, K. Toyota, R. Fukuda, J. Hasegawa, M. Ishida, T. Nakajima, 
 Y. Honda, O. Kitao, H. Nakai, T. Vreven, J. A. Montgomery, Jr., 
 J. E. Peralta, F. Ogliaro, M. Bearpark, J. J. Heyd, E. Brothers, 
 K. N. Kudin, V. N. Staroverov, T. Keith, R. Kobayashi, J. Normand, 
 K. Raghavachari, A. Rendell, J. C. Burant, S. S. Iyengar, J. Tomasi, 
 M. Cossi, N. Rega, J. M. Millam, M. Klene, J. E. Knox, J. B. Cross, 
 V. Bakken, C. Adamo, J. Jaramillo, R. Gomperts, R. E. Stratmann, 
 O. Yazyev, A. J. Austin, R. Cammi, C. Pomelli, J. W. Ochterski, 
 R. L. Martin, K. Morokuma, V. G. Zakrzewski, G. A. Voth, 
 P. Salvador, J. J. Dannenberg, S. Dapprich, A. D. Daniels, 
 O. Farkas, J. B. Foresman, J. V. Ortiz, J. Cioslowski, 
 and D. J. Fox, Gaussian, Inc., Wallingford CT, 2013.
 
 ******************************************
 Gaussian 09:  ES64L-G09RevE.01 30-Nov-2015
                15-Oct-2016 
 ******************************************
 %chk=ccc_Best_geom_HF_V5Z.chk
 %nprocshared=32
 Will use up to   32 processors via shared memory.
 %mem=100GB
 -------------
 #P HF cc-pV5Z
 -------------
 1/38=1/1;
 2/12=2,17=6,18=5,40=1/2;
 3/5=16,6=3,11=9,16=1,25=1,30=1/1,2,3;
 4//1;
 5/5=2,38=5/2;
 6/7=2,8=2,9=2,10=2,28=1/1;
 99/5=1,9=1/99;
 Leave Link    1 at Sat Oct 15 16:52:47 2016, MaxMem= 13421772800 cpu:         3.9
 (Enter /share/pub/jeff/software/g09/g09/l101.exe)
 --------------------------
 start best geom PCCP paper
 --------------------------
 Symbolic Z-matrix:
 Charge =  0 Multiplicity = 1
 N
 H                    1    B1
 C                    1    B2       2    A1
 C                    3    B3       1    A2       2    D1       0
 H                    3    B4       1    A3       4    D2       0
 H                    3    B5       1    A4       4    D3       0
 O                    4    B6       3    A5       1    D4       0
 O                    4    B7       3    A6       1    D5       0
 H                    1    B8       3    A7       4    D6       0
 H                    8    B9       4    A8       3    D7       0
       Variables:
  B1                    1.0091                   
  B2                    1.4609                   
  A1                  112.0646                   
  B3                    1.5252                   
  A2                  111.6045                   
  D1                  101.3936                   
  B4                    1.0891                   
  A3                  110.2343                   
  D2                  117.8521                   
  B5                    1.089                    
  A4                  113.9016                   
  D3                 -121.6454                   
  B6                    1.2001                   
  A5                  122.6125                   
  D4                 -171.93                     
  B7                    1.3356                   
  A6                  114.3853                   
  D5                    8.8971                   
  B8                    1.008                    
  A7                  112.2608                   
  D6                 -136.9715                   
  B9                    0.976                    
  A8                  105.7699                   
  D7                   -1.3866                   
 
 NAtoms=     10 NQM=       10 NQMF=       0 NMMI=      0 NMMIF=      0
                NMic=       0 NMicF=      0.
                    Isotopes and Nuclear Properties:
 (Nuclear quadrupole moments (NQMom) in fm**2, nuclear magnetic moments (NMagM)
  in nuclear magnetons)

  Atom         1           2           3           4           5           6           7           8           9          10
 IAtWgt=          14           1          12          12           1           1          16          16           1           1
 AtmWgt=  14.0030740   1.0078250  12.0000000  12.0000000   1.0078250   1.0078250  15.9949146  15.9949146   1.0078250   1.0078250
 NucSpn=           2           1           0           0           1           1           0           0           1           1
 AtZEff=   0.0000000   0.0000000   0.0000000   0.0000000   0.0000000   0.0000000   0.0000000   0.0000000   0.0000000   0.0000000
 NQMom=    2.0440000   0.0000000   0.0000000   0.0000000   0.0000000   0.0000000   0.0000000   0.0000000   0.0000000   0.0000000
 NMagM=    0.4037610   2.7928460   0.0000000   0.0000000   2.7928460   2.7928460   0.0000000   0.0000000   2.7928460   2.7928460
 AtZNuc=   7.0000000   1.0000000   6.0000000   6.0000000   1.0000000   1.0000000   8.0000000   8.0000000   1.0000000   1.0000000
 Leave Link  101 at Sat Oct 15 16:52:47 2016, MaxMem= 13421772800 cpu:         2.4
 (Enter /share/pub/jeff/software/g09/g09/l202.exe)
                          Input orientation:                          
 ---------------------------------------------------------------------
 Center     Atomic      Atomic             Coordinates (Angstroms)
 Number     Number       Type             X           Y           Z
 ---------------------------------------------------------------------
      1          7           0        0.000000    0.000000    0.000000
      2          1           0        0.000000    0.000000    1.009100
      3          6           0        1.353905    0.000000   -0.548790
      4          6           0        1.769118   -1.390106   -1.019362
      5          1           0        1.405706    0.646494   -1.423719
      6          1           0        2.113699    0.344627    0.151115
      7          8           0        2.887214   -1.646392   -1.372093
      8          8           0        0.781571   -2.289312   -1.021685
      9          1           0       -0.537692    0.794255   -0.310017
     10          1           0       -0.004808   -1.820532   -0.683410
 ---------------------------------------------------------------------
                    Distance matrix (angstroms):
                    1          2          3          4          5
     1  N    0.000000
     2  H    1.009100   0.000000
     3  C    1.460900   2.063996   0.000000
     4  C    2.470076   3.029329   1.525200   0.000000
     5  H    2.102603   2.883153   1.089100   2.107916   0.000000
     6  H    2.146934   2.307082   1.089000   2.120861   1.752848
     7  O    3.595727   4.088605   2.395719   1.200100   2.730358
     8  O    2.625955   3.158463   2.406688   1.335600   3.028223
     9  H    1.008000   1.630957   2.065428   3.255146   2.244763
    10  H    1.944584   2.485749   2.275645   1.856056   2.936635
                    6          7          8          9         10
     6  H    0.000000
     7  O    2.623480   0.000000
     8  O    3.176107   2.229320   0.000000
     9  H    2.728494   4.337597   3.428602   0.000000
    10  H    3.142040   2.977986   0.976000   2.694531   0.000000
 Stoichiometry    C2H5NO2
 Framework group  C1[X(C2H5NO2)]
 Deg. of freedom    24
 Full point group                 C1      NOp   1
 Largest Abelian subgroup         C1      NOp   1
 Largest concise Abelian subgroup C1      NOp   1
                         Standard orientation:                         
 ---------------------------------------------------------------------
 Center     Atomic      Atomic             Coordinates (Angstroms)
 Number     Number       Type             X           Y           Z
 ---------------------------------------------------------------------
      1          7           0       -1.777783    0.124928   -0.048772
      2          1           0       -2.176227    0.113925   -0.975812
      3          6           0       -0.642823   -0.786994    0.071611
      4          6           0        0.686110   -0.041625    0.003814
      5          1           0       -0.662886   -1.287754    1.038553
      6          1           0       -0.617441   -1.563047   -0.691946
      7          8           0        1.742553   -0.607441   -0.059578
      8          8           0        0.574514    1.288852    0.038515
      9          1           0       -2.512293   -0.090938    0.606942
     10          1           0       -0.382931    1.473747    0.079614
 ---------------------------------------------------------------------
 Rotational constants (GHZ):     10.2054236      4.0954771      3.0305608
 Leave Link  202 at Sat Oct 15 16:52:47 2016, MaxMem= 13421772800 cpu:         3.0
 (Enter /share/pub/jeff/software/g09/g09/l301.exe)
 Standard basis: CC-pV5Z (5D, 7F)
 Ernie: Thresh=  0.10000D-02 Tol=  0.10000D-05 Strict=F.
 Ernie:  20 primitive shells out of 300 were deleted.
 There are   980 symmetry adapted cartesian basis functions of A   symmetry.
 There are   730 symmetry adapted basis functions of A   symmetry.
   730 basis functions,  1110 primitive gaussians,   980 cartesian basis functions
    20 alpha electrons       20 beta electrons
       nuclear repulsion energy       181.0042851162 Hartrees.
 IExCor=    0 DFT=F Ex=HF Corr=None ExCW=0 ScaHFX=  1.000000
 ScaDFX=  1.000000  1.000000  1.000000  1.000000 ScalE2=  1.000000  1.000000
 IRadAn=      0 IRanWt=     -1 IRanGd=            0 ICorTp=0 IEmpDi=  4
 NAtoms=   10 NActive=   10 NUniq=   10 SFac= 1.00D+00 NAtFMM=   60 NAOKFM=F Big=F
 Integral buffers will be    131072 words long.
 Raffenetti 1 integral format.
 Two-electron integral symmetry is turned on.
 Leave Link  301 at Sat Oct 15 16:52:47 2016, MaxMem= 13421772800 cpu:         5.5
 (Enter /share/pub/jeff/software/g09/g09/l302.exe)
 NPDir=0 NMtPBC=     1 NCelOv=     1 NCel=       1 NClECP=     1 NCelD=      1
         NCelK=      1 NCelE2=     1 NClLst=     1 CellRange=     0.0.
 One-electron integrals computed using PRISM.
 NBasis=   730 RedAO= T EigKep=  1.65D-05  NBF=   730
 NBsUse=   730 1.00D-06 EigRej= -1.00D+00 NBFU=   730
 Leave Link  302 at Sat Oct 15 16:52:49 2016, MaxMem= 13421772800 cpu:        28.4
 (Enter /share/pub/jeff/software/g09/g09/l303.exe)
 DipDrv:  MaxL=1.
 Leave Link  303 at Sat Oct 15 16:52:49 2016, MaxMem= 13421772800 cpu:         9.9
 (Enter /share/pub/jeff/software/g09/g09/l401.exe)
 ExpMin= 7.28D-02 ExpMax= 1.64D+05 ExpMxC= 5.16D+02 IAcc=2 IRadAn=         4 AccDes= 0.00D+00
 Harris functional with IExCor=  205 and IRadAn=       4 diagonalized for initial guess.
 HarFok:  IExCor=  205 AccDes= 0.00D+00 IRadAn=         4 IDoV= 1 UseB2=F ITyADJ=14
 ICtDFT=  3500011 ScaDFX=  1.000000  1.000000  1.000000  1.000000
 FoFCou: FMM=F IPFlag=           0 FMFlag=      100000 FMFlg1=           0
         NFxFlg=           0 DoJE=T BraDBF=F KetDBF=T FulRan=T
         wScrn=  0.000000 ICntrl=     500 IOpCl=  0 I1Cent=   200000004 NGrid=           0
         NMat0=    1 NMatS0=      1 NMatT0=    0 NMatD0=    1 NMtDS0=    0 NMtDT0=    0
 Petite list used in FoFCou.
 Harris En= -283.260885406588    
 JPrj=0 DoOrth=F DoCkMO=F.
 Leave Link  401 at Sat Oct 15 16:52:51 2016, MaxMem= 13421772800 cpu:        33.2
 (Enter /share/pub/jeff/software/g09/g09/l502.exe)
 Closed shell SCF:
 Using DIIS extrapolation, IDIIS=  1040.
 Integral symmetry usage will be decided dynamically.
 IVT=     2937920 IEndB=     2937920 NGot= 13421772800 MDV= 13419812901
 LenX= 13419812901 LenY= 13418851521
 Requested convergence on RMS density matrix=1.00D-08 within 128 cycles.
 Requested convergence on MAX density matrix=1.00D-06.
 Requested convergence on             energy=1.00D-06.
 No special actions if energy rises.
 Fock matrices will be formed incrementally for  20 cycles.
 Integral accuracy reduced to 1.0D-05 until final iterations.

 Cycle   1  Pass 0  IDiag  1:
 FoFJK:  IHMeth= 1 ICntrl=       0 DoSepK=F KAlg= 0 I1Cent=   0 FoldK=F
 IRaf= 940000000 NMat=   1 IRICut=       1 DoRegI=T DoRafI=F ISym2E= 0.
 FoFCou: FMM=F IPFlag=           0 FMFlag=      100000 FMFlg1=           0
         NFxFlg=           0 DoJE=F BraDBF=F KetDBF=F FulRan=T
         wScrn=  0.000000 ICntrl=       0 IOpCl=  0 I1Cent=           0 NGrid=           0
         NMat0=    1 NMatS0=      1 NMatT0=    0 NMatD0=    1 NMtDS0=    0 NMtDT0=    0
 Symmetry not used in FoFCou.
 E= -282.732247176919    
 DIIS: error= 2.95D-02 at cycle   1 NSaved=   1.
 NSaved= 1 IEnMin= 1 EnMin= -282.732247176919     IErMin= 1 ErrMin= 2.95D-02
 ErrMax= 2.95D-02  0.00D+00 EMaxC= 1.00D-01 BMatC= 6.58D-01 BMatP= 6.58D-01
 IDIUse=3 WtCom= 7.05D-01 WtEn= 2.95D-01
 Coeff-Com:  0.100D+01
 Coeff-En:   0.100D+01
 Coeff:      0.100D+01
 Gap=     0.574 Goal=   None    Shift=    0.000
 GapD=    0.574 DampG=2.000 DampE=0.500 DampFc=1.0000 IDamp=-1.
 RMSDP=5.80D-04 MaxDP=5.92D-02              OVMax= 1.29D-01

 Cycle   2  Pass 0  IDiag  1:
 RMSU=  5.77D-04    CP:  9.77D-01
 E= -282.918659175628     Delta-E=       -0.186411998709 Rises=F Damp=F
 DIIS: error= 1.17D-02 at cycle   2 NSaved=   2.
 NSaved= 2 IEnMin= 2 EnMin= -282.918659175628     IErMin= 2 ErrMin= 1.17D-02
 ErrMax= 1.17D-02  0.00D+00 EMaxC= 1.00D-01 BMatC= 7.93D-02 BMatP= 6.58D-01
 IDIUse=3 WtCom= 8.83D-01 WtEn= 1.17D-01
 Coeff-Com:  0.180D+00 0.820D+00
 Coeff-En:   0.000D+00 0.100D+01
 Coeff:      0.159D+00 0.841D+00
 Gap=     0.534 Goal=   None    Shift=    0.000
 RMSDP=3.21D-04 MaxDP=4.84D-02 DE=-1.86D-01 OVMax= 5.30D-02

 Cycle   3  Pass 0  IDiag  1:
 RMSU=  2.16D-04    CP:  9.80D-01  5.90D-01
 E= -282.962113554100     Delta-E=       -0.043454378472 Rises=F Damp=F
 DIIS: error= 3.69D-03 at cycle   3 NSaved=   3.
 NSaved= 3 IEnMin= 3 EnMin= -282.962113554100     IErMin= 3 ErrMin= 3.69D-03
 ErrMax= 3.69D-03  0.00D+00 EMaxC= 1.00D-01 BMatC= 1.23D-02 BMatP= 7.93D-02
 IDIUse=3 WtCom= 9.63D-01 WtEn= 3.69D-02
 Coeff-Com: -0.240D-01 0.255D+00 0.769D+00
 Coeff-En:   0.000D+00 0.000D+00 0.100D+01
 Coeff:     -0.231D-01 0.245D+00 0.778D+00
 Gap=     0.496 Goal=   None    Shift=    0.000
 RMSDP=5.33D-05 MaxDP=6.02D-03 DE=-4.35D-02 OVMax= 2.65D-02

 Cycle   4  Pass 0  IDiag  1:
 RMSU=  4.12D-05    CP:  9.79D-01  6.47D-01  9.73D-01
 E= -282.969558145653     Delta-E=       -0.007444591553 Rises=F Damp=F
 DIIS: error= 1.28D-03 at cycle   4 NSaved=   4.
 NSaved= 4 IEnMin= 4 EnMin= -282.969558145653     IErMin= 4 ErrMin= 1.28D-03
 ErrMax= 1.28D-03  0.00D+00 EMaxC= 1.00D-01 BMatC= 3.87D-04 BMatP= 1.23D-02
 IDIUse=3 WtCom= 9.87D-01 WtEn= 1.28D-02
 Coeff-Com: -0.107D-01 0.560D-01 0.237D+00 0.718D+00
 Coeff-En:   0.000D+00 0.000D+00 0.000D+00 0.100D+01
 Coeff:     -0.105D-01 0.553D-01 0.234D+00 0.721D+00
 Gap=     0.492 Goal=   None    Shift=    0.000
 RMSDP=1.65D-05 MaxDP=1.43D-03 DE=-7.44D-03 OVMax= 4.19D-03

 Cycle   5  Pass 0  IDiag  1:
 RMSU=  1.26D-05    CP:  9.79D-01  6.41D-01  1.02D+00  9.38D-01
 E= -282.969886297397     Delta-E=       -0.000328151743 Rises=F Damp=F
 DIIS: error= 2.55D-04 at cycle   5 NSaved=   5.
 NSaved= 5 IEnMin= 5 EnMin= -282.969886297397     IErMin= 5 ErrMin= 2.55D-04
 ErrMax= 2.55D-04  0.00D+00 EMaxC= 1.00D-01 BMatC= 2.68D-05 BMatP= 3.87D-04
 IDIUse=3 WtCom= 9.97D-01 WtEn= 2.55D-03
 Coeff-Com:  0.184D-02-0.220D-01-0.705D-01 0.372D-01 0.105D+01
 Coeff-En:   0.000D+00 0.000D+00 0.000D+00 0.000D+00 0.100D+01
 Coeff:      0.184D-02-0.219D-01-0.703D-01 0.371D-01 0.105D+01
 Gap=     0.492 Goal=   None    Shift=    0.000
 RMSDP=1.12D-05 MaxDP=1.27D-03 DE=-3.28D-04 OVMax= 3.47D-03

 Cycle   6  Pass 0  IDiag  1:
 RMSU=  4.45D-06    CP:  9.79D-01  6.33D-01  1.05D+00  1.08D+00  1.14D+00
 E= -282.969936186208     Delta-E=       -0.000049888812 Rises=F Damp=F
 DIIS: error= 8.69D-05 at cycle   6 NSaved=   6.
 NSaved= 6 IEnMin= 6 EnMin= -282.969936186208     IErMin= 6 ErrMin= 8.69D-05
 ErrMax= 8.69D-05  0.00D+00 EMaxC= 1.00D-01 BMatC= 4.29D-06 BMatP= 2.68D-05
 IDIUse=1 WtCom= 1.00D+00 WtEn= 0.00D+00
 Coeff-Com:  0.142D-02-0.105D-01-0.379D-01-0.803D-01 0.197D+00 0.931D+00
 Coeff:      0.142D-02-0.105D-01-0.379D-01-0.803D-01 0.197D+00 0.931D+00
 Gap=     0.493 Goal=   None    Shift=    0.000
 RMSDP=4.18D-06 MaxDP=4.32D-04 DE=-4.99D-05 OVMax= 1.04D-03

 Initial convergence to 1.0D-05 achieved.  Increase integral accuracy.
 Cycle   7  Pass 1  IDiag  1:
 E= -282.969943218952     Delta-E=       -0.000007032744 Rises=F Damp=F
 DIIS: error= 4.99D-05 at cycle   1 NSaved=   1.
 NSaved= 1 IEnMin= 1 EnMin= -282.969943218952     IErMin= 1 ErrMin= 4.99D-05
 ErrMax= 4.99D-05  0.00D+00 EMaxC= 1.00D-01 BMatC= 3.18D-06 BMatP= 3.18D-06
 IDIUse=1 WtCom= 1.00D+00 WtEn= 0.00D+00
 Coeff-Com:  0.100D+01
 Coeff:      0.100D+01
 Gap=     0.493 Goal=   None    Shift=    0.000
 RMSDP=4.18D-06 MaxDP=4.32D-04 DE=-7.03D-06 OVMax= 4.60D-04

 Cycle   8  Pass 1  IDiag  1:
 RMSU=  2.10D-05    CP:  1.00D+00
 E= -282.969944689952     Delta-E=       -0.000001471000 Rises=F Damp=F
 DIIS: error= 2.19D-05 at cycle   2 NSaved=   2.
 NSaved= 2 IEnMin= 2 EnMin= -282.969944689952     IErMin= 2 ErrMin= 2.19D-05
 ErrMax= 2.19D-05  0.00D+00 EMaxC= 1.00D-01 BMatC= 1.70D-07 BMatP= 3.18D-06
 IDIUse=1 WtCom= 1.00D+00 WtEn= 0.00D+00
 Coeff-Com:  0.122D-01 0.988D+00
 Coeff:      0.122D-01 0.988D+00
 Gap=     0.493 Goal=   None    Shift=    0.000
 RMSDP=1.01D-06 MaxDP=7.62D-05 DE=-1.47D-06 OVMax= 2.76D-04

 Cycle   9  Pass 1  IDiag  1:
 RMSU=  6.33D-07    CP:  1.00D+00  1.04D+00
 E= -282.969945039379     Delta-E=       -0.000000349427 Rises=F Damp=F
 DIIS: error= 1.08D-05 at cycle   3 NSaved=   3.
 NSaved= 3 IEnMin= 3 EnMin= -282.969945039379     IErMin= 3 ErrMin= 1.08D-05
 ErrMax= 1.08D-05  0.00D+00 EMaxC= 1.00D-01 BMatC= 6.58D-08 BMatP= 1.70D-07
 IDIUse=1 WtCom= 1.00D+00 WtEn= 0.00D+00
 Coeff-Com: -0.389D-01 0.223D+00 0.816D+00
 Coeff:     -0.389D-01 0.223D+00 0.816D+00
 Gap=     0.493 Goal=   None    Shift=    0.000
 RMSDP=3.02D-07 MaxDP=2.39D-05 DE=-3.49D-07 OVMax= 1.28D-04

 Cycle  10  Pass 1  IDiag  1:
 RMSU=  2.00D-07    CP:  1.00D+00  1.04D+00  1.32D+00
 E= -282.969945153647     Delta-E=       -0.000000114268 Rises=F Damp=F
 DIIS: error= 7.69D-06 at cycle   4 NSaved=   4.
 NSaved= 4 IEnMin= 4 EnMin= -282.969945153647     IErMin= 4 ErrMin= 7.69D-06
 ErrMax= 7.69D-06  0.00D+00 EMaxC= 1.00D-01 BMatC= 1.52D-08 BMatP= 6.58D-08
 IDIUse=1 WtCom= 1.00D+00 WtEn= 0.00D+00
 Coeff-Com:  0.335D-02-0.419D+00-0.212D+00 0.163D+01
 Coeff:      0.335D-02-0.419D+00-0.212D+00 0.163D+01
 Gap=     0.493 Goal=   None    Shift=    0.000
 RMSDP=3.80D-07 MaxDP=2.95D-05 DE=-1.14D-07 OVMax= 2.12D-04

 Cycle  11  Pass 1  IDiag  1:
 RMSU=  1.34D-07    CP:  1.00D+00  1.04D+00  1.79D+00  1.98D+00
 E= -282.969945215470     Delta-E=       -0.000000061823 Rises=F Damp=F
 DIIS: error= 7.87D-07 at cycle   5 NSaved=   5.
 NSaved= 5 IEnMin= 5 EnMin= -282.969945215470     IErMin= 5 ErrMin= 7.87D-07
 ErrMax= 7.87D-07  0.00D+00 EMaxC= 1.00D-01 BMatC= 6.73D-10 BMatP= 1.52D-08
 IDIUse=1 WtCom= 1.00D+00 WtEn= 0.00D+00
 Coeff-Com:  0.251D-02-0.148D+00-0.107D+00 0.532D+00 0.720D+00
 Coeff:      0.251D-02-0.148D+00-0.107D+00 0.532D+00 0.720D+00
 Gap=     0.493 Goal=   None    Shift=    0.000
 RMSDP=4.19D-08 MaxDP=3.55D-06 DE=-6.18D-08 OVMax= 1.21D-05

 Cycle  12  Pass 1  IDiag  1:
 RMSU=  2.44D-08    CP:  1.00D+00  1.04D+00  1.81D+00  2.09D+00  1.12D+00
 E= -282.969945216254     Delta-E=       -0.000000000783 Rises=F Damp=F
 DIIS: error= 4.31D-07 at cycle   6 NSaved=   6.
 NSaved= 6 IEnMin= 6 EnMin= -282.969945216254     IErMin= 6 ErrMin= 4.31D-07
 ErrMax= 4.31D-07  0.00D+00 EMaxC= 1.00D-01 BMatC= 4.86D-11 BMatP= 6.73D-10
 IDIUse=1 WtCom= 1.00D+00 WtEn= 0.00D+00
 Coeff-Com: -0.587D-03 0.570D-01 0.276D-01-0.199D+00-0.894D-01 0.120D+01
 Coeff:     -0.587D-03 0.570D-01 0.276D-01-0.199D+00-0.894D-01 0.120D+01
 Gap=     0.493 Goal=   None    Shift=    0.000
 RMSDP=1.97D-08 MaxDP=1.35D-06 DE=-7.83D-10 OVMax= 3.72D-06

 Cycle  13  Pass 1  IDiag  1:
 RMSU=  9.50D-09    CP:  1.00D+00  1.04D+00  1.81D+00  2.11D+00  1.17D+00
                    CP:  1.44D+00
 E= -282.969945216386     Delta-E=       -0.000000000132 Rises=F Damp=F
 DIIS: error= 1.21D-07 at cycle   7 NSaved=   7.
 NSaved= 7 IEnMin= 7 EnMin= -282.969945216386     IErMin= 7 ErrMin= 1.21D-07
 ErrMax= 1.21D-07  0.00D+00 EMaxC= 1.00D-01 BMatC= 1.40D-11 BMatP= 4.86D-11
 IDIUse=1 WtCom= 1.00D+00 WtEn= 0.00D+00
 Coeff-Com: -0.656D-03 0.455D-01 0.258D-01-0.161D+00-0.178D+00 0.378D+00
 Coeff-Com:  0.891D+00
 Coeff:     -0.656D-03 0.455D-01 0.258D-01-0.161D+00-0.178D+00 0.378D+00
 Coeff:      0.891D+00
 Gap=     0.493 Goal=   None    Shift=    0.000
 RMSDP=7.84D-09 MaxDP=6.66D-07 DE=-1.32D-10 OVMax= 1.67D-06

 SCF Done:  E(RHF) =  -282.969945216     A.U. after   13 cycles
            NFock= 13  Conv=0.78D-08     -V/T= 2.0010
 KE= 2.826793986905D+02 PE=-1.028491392706D+03 EE= 2.818377636830D+02
 Leave Link  502 at Sat Oct 15 17:03:48 2016, MaxMem= 13421772800 cpu:     20644.3
 (Enter /share/pub/jeff/software/g09/g09/l601.exe)
 Copying SCF densities to generalized density rwf, IOpCl= 0 IROHF=0.

 **********************************************************************

            Population analysis using the SCF density.

 **********************************************************************

 Orbital symmetries:
       Occupied  (A) (A) (A) (A) (A) (A) (A) (A) (A) (A) (A) (A)
                 (A) (A) (A) (A) (A) (A) (A) (A)
       Virtual   (A) (A) (A) (A) (A) (A) (A) (A) (A) (A) (A) (A)
                 (A) (A) (A) (A) (A) (A) (A) (A) (A) (A) (A) (A)
                 (A) (A) (A) (A) (A) (A) (A) (A) (A) (A) (A) (A)
                 (A) (A) (A) (A) (A) (A) (A) (A) (A) (A) (A) (A)
                 (A) (A) (A) (A) (A) (A) (A) (A) (A) (A) (A) (A)
                 (A) (A) (A) (A) (A) (A) (A) (A) (A) (A) (A) (A)
                 (A) (A) (A) (A) (A) (A) (A) (A) (A) (A) (A) (A)
                 (A) (A) (A) (A) (A) (A) (A) (A) (A) (A) (A) (A)
                 (A) (A) (A) (A) (A) (A) (A) (A) (A) (A) (A) (A)
                 (A) (A) (A) (A) (A) (A) (A) (A) (A) (A) (A) (A)
                 (A) (A) (A) (A) (A) (A) (A) (A) (A) (A) (A) (A)
                 (A) (A) (A) (A) (A) (A) (A) (A) (A) (A) (A) (A)
                 (A) (A) (A) (A) (A) (A) (A) (A) (A) (A) (A) (A)
                 (A) (A) (A) (A) (A) (A) (A) (A) (A) (A) (A) (A)
                 (A) (A) (A) (A) (A) (A) (A) (A) (A) (A) (A) (A)
                 (A) (A) (A) (A) (A) (A) (A) (A) (A) (A) (A) (A)
                 (A) (A) (A) (A) (A) (A) (A) (A) (A) (A) (A) (A)
                 (A) (A) (A) (A) (A) (A) (A) (A) (A) (A) (A) (A)
                 (A) (A) (A) (A) (A) (A) (A) (A) (A) (A) (A) (A)
                 (A) (A) (A) (A) (A) (A) (A) (A) (A) (A) (A) (A)
                 (A) (A) (A) (A) (A) (A) (A) (A) (A) (A) (A) (A)
                 (A) (A) (A) (A) (A) (A) (A) (A) (A) (A) (A) (A)
                 (A) (A) (A) (A) (A) (A) (A) (A) (A) (A) (A) (A)
                 (A) (A) (A) (A) (A) (A) (A) (A) (A) (A) (A) (A)
                 (A) (A) (A) (A) (A) (A) (A) (A) (A) (A) (A) (A)
                 (A) (A) (A) (A) (A) (A) (A) (A) (A) (A) (A) (A)
                 (A) (A) (A) (A) (A) (A) (A) (A) (A) (A) (A) (A)
                 (A) (A) (A) (A) (A) (A) (A) (A) (A) (A) (A) (A)
                 (A) (A) (A) (A) (A) (A) (A) (A) (A) (A) (A) (A)
                 (A) (A) (A) (A) (A) (A) (A) (A) (A) (A) (A) (A)
                 (A) (A) (A) (A) (A) (A) (A) (A) (A) (A) (A) (A)
                 (A) (A) (A) (A) (A) (A) (A) (A) (A) (A) (A) (A)
                 (A) (A) (A) (A) (A) (A) (A) (A) (A) (A) (A) (A)
                 (A) (A) (A) (A) (A) (A) (A) (A) (A) (A) (A) (A)
                 (A) (A) (A) (A) (A) (A) (A) (A) (A) (A) (A) (A)
                 (A) (A) (A) (A) (A) (A) (A) (A) (A) (A) (A) (A)
                 (A) (A) (A) (A) (A) (A) (A) (A) (A) (A) (A) (A)
                 (A) (A) (A) (A) (A) (A) (A) (A) (A) (A) (A) (A)
                 (A) (A) (A) (A) (A) (A) (A) (A) (A) (A) (A) (A)
                 (A) (A) (A) (A) (A) (A) (A) (A) (A) (A) (A) (A)
                 (A) (A) (A) (A) (A) (A) (A) (A) (A) (A) (A) (A)
                 (A) (A) (A) (A) (A) (A) (A) (A) (A) (A) (A) (A)
                 (A) (A) (A) (A) (A) (A) (A) (A) (A) (A) (A) (A)
                 (A) (A) (A) (A) (A) (A) (A) (A) (A) (A) (A) (A)
                 (A) (A) (A) (A) (A) (A) (A) (A) (A) (A) (A) (A)
                 (A) (A) (A) (A) (A) (A) (A) (A) (A) (A) (A) (A)
                 (A) (A) (A) (A) (A) (A) (A) (A) (A) (A) (A) (A)
                 (A) (A) (A) (A) (A) (A) (A) (A) (A) (A) (A) (A)
                 (A) (A) (A) (A) (A) (A) (A) (A) (A) (A) (A) (A)
                 (A) (A) (A) (A) (A) (A) (A) (A) (A) (A) (A) (A)
                 (A) (A) (A) (A) (A) (A) (A) (A) (A) (A) (A) (A)
                 (A) (A) (A) (A) (A) (A) (A) (A) (A) (A) (A) (A)
                 (A) (A) (A) (A) (A) (A) (A) (A) (A) (A) (A) (A)
                 (A) (A) (A) (A) (A) (A) (A) (A) (A) (A) (A) (A)
                 (A) (A) (A) (A) (A) (A) (A) (A) (A) (A) (A) (A)
                 (A) (A) (A) (A) (A) (A) (A) (A) (A) (A) (A) (A)
                 (A) (A) (A) (A) (A) (A) (A) (A) (A) (A) (A) (A)
                 (A) (A) (A) (A) (A) (A) (A) (A) (A) (A) (A) (A)
                 (A) (A) (A) (A) (A) (A) (A) (A) (A) (A) (A) (A)
                 (A) (A)
 The electronic state is 1-A.
 Alpha  occ. eigenvalues --  -20.59500 -20.53069 -15.58620 -11.37320 -11.28958
 Alpha  occ. eigenvalues --   -1.45381  -1.35617  -1.22386  -0.97935  -0.81231
 Alpha  occ. eigenvalues --   -0.73731  -0.71491  -0.67763  -0.62803  -0.62348
 Alpha  occ. eigenvalues --   -0.56303  -0.55855  -0.47414  -0.46592  -0.42506
 Alpha virt. eigenvalues --    0.06802   0.10138   0.11332   0.13010   0.15217
 Alpha virt. eigenvalues --    0.17531   0.17948   0.20167   0.22733   0.23730
 Alpha virt. eigenvalues --    0.27506   0.27926   0.29153   0.30680   0.32695
 Alpha virt. eigenvalues --    0.34441   0.35830   0.37581   0.38582   0.41080
 Alpha virt. eigenvalues --    0.41312   0.41846   0.43789   0.45331   0.45924
 Alpha virt. eigenvalues --    0.47528   0.48553   0.50325   0.52592   0.53987
 Alpha virt. eigenvalues --    0.56072   0.59005   0.61645   0.63027   0.63791
 Alpha virt. eigenvalues --    0.65736   0.69054   0.70029   0.71825   0.73424
 Alpha virt. eigenvalues --    0.74220   0.74567   0.77498   0.78774   0.79917
 Alpha virt. eigenvalues --    0.80730   0.81828   0.84017   0.85790   0.86972
 Alpha virt. eigenvalues --    0.87422   0.91286   0.92758   0.93454   0.95304
 Alpha virt. eigenvalues --    0.95878   0.96760   0.99290   1.00930   1.01852
 Alpha virt. eigenvalues --    1.03801   1.05963   1.08254   1.09647   1.11038
 Alpha virt. eigenvalues --    1.12525   1.13883   1.15831   1.18319   1.22201
 Alpha virt. eigenvalues --    1.24474   1.26939   1.28912   1.30437   1.31896
 Alpha virt. eigenvalues --    1.34664   1.38255   1.38745   1.39208   1.41128
 Alpha virt. eigenvalues --    1.43751   1.44678   1.48201   1.49947   1.51739
 Alpha virt. eigenvalues --    1.53748   1.55819   1.58252   1.59252   1.59493
 Alpha virt. eigenvalues --    1.62485   1.64581   1.66062   1.66750   1.70694
 Alpha virt. eigenvalues --    1.71612   1.73735   1.74114   1.77695   1.80171
 Alpha virt. eigenvalues --    1.81037   1.82718   1.84427   1.86512   1.87623
 Alpha virt. eigenvalues --    1.91391   1.92441   1.93617   1.94662   1.97758
 Alpha virt. eigenvalues --    1.98508   2.00352   2.02434   2.03728   2.04182
 Alpha virt. eigenvalues --    2.05441   2.08086   2.09263   2.10261   2.11667
 Alpha virt. eigenvalues --    2.13866   2.15523   2.16736   2.17595   2.19286
 Alpha virt. eigenvalues --    2.19942   2.21378   2.22673   2.23710   2.26555
 Alpha virt. eigenvalues --    2.29916   2.31727   2.34417   2.35416   2.38029
 Alpha virt. eigenvalues --    2.41211   2.41772   2.44448   2.45622   2.46596
 Alpha virt. eigenvalues --    2.48757   2.50339   2.52720   2.54294   2.56953
 Alpha virt. eigenvalues --    2.58265   2.61304   2.63123   2.67587   2.67801
 Alpha virt. eigenvalues --    2.71409   2.73937   2.77596   2.78223   2.80137
 Alpha virt. eigenvalues --    2.80833   2.84183   2.88202   2.90104   2.92312
 Alpha virt. eigenvalues --    2.94164   2.96559   2.98654   3.00660   3.03831
 Alpha virt. eigenvalues --    3.06950   3.08461   3.09222   3.10856   3.13321
 Alpha virt. eigenvalues --    3.17829   3.19135   3.21189   3.22418   3.24264
 Alpha virt. eigenvalues --    3.25422   3.28753   3.30417   3.31394   3.36130
 Alpha virt. eigenvalues --    3.38081   3.39853   3.41858   3.42406   3.43751
 Alpha virt. eigenvalues --    3.46792   3.50416   3.51058   3.54402   3.57925
 Alpha virt. eigenvalues --    3.62493   3.63593   3.64844   3.69330   3.69784
 Alpha virt. eigenvalues --    3.71298   3.75698   3.76137   3.77123   3.80029
 Alpha virt. eigenvalues --    3.83107   3.85383   3.86126   3.88183   3.88525
 Alpha virt. eigenvalues --    3.96669   3.98907   4.00390   4.01962   4.03997
 Alpha virt. eigenvalues --    4.05076   4.08670   4.09509   4.11831   4.13082
 Alpha virt. eigenvalues --    4.17098   4.18185   4.20840   4.23632   4.25377
 Alpha virt. eigenvalues --    4.25546   4.27793   4.29337   4.32729   4.34119
 Alpha virt. eigenvalues --    4.36457   4.37942   4.38906   4.40777   4.42286
 Alpha virt. eigenvalues --    4.43754   4.46362   4.49836   4.51899   4.54775
 Alpha virt. eigenvalues --    4.58904   4.59278   4.62573   4.63750   4.66990
 Alpha virt. eigenvalues --    4.68873   4.71922   4.73992   4.75358   4.76929
 Alpha virt. eigenvalues --    4.77833   4.80638   4.81140   4.83805   4.87397
 Alpha virt. eigenvalues --    4.90508   4.91886   4.92463   4.95711   4.98647
 Alpha virt. eigenvalues --    4.99735   5.00968   5.03432   5.05553   5.09103
 Alpha virt. eigenvalues --    5.09573   5.12051   5.15165   5.16523   5.18666
 Alpha virt. eigenvalues --    5.20212   5.21437   5.22451   5.24886   5.27884
 Alpha virt. eigenvalues --    5.29927   5.30905   5.37950   5.39181   5.40620
 Alpha virt. eigenvalues --    5.42297   5.44001   5.45580   5.50179   5.50723
 Alpha virt. eigenvalues --    5.54126   5.57537   5.59667   5.61482   5.62781
 Alpha virt. eigenvalues --    5.66528   5.69201   5.69765   5.74558   5.77497
 Alpha virt. eigenvalues --    5.80459   5.81611   5.82807   5.84452   5.86389
 Alpha virt. eigenvalues --    5.90706   5.93169   5.96082   5.97273   6.01145
 Alpha virt. eigenvalues --    6.03091   6.06369   6.07336   6.10436   6.14633
 Alpha virt. eigenvalues --    6.17251   6.18561   6.21054   6.23858   6.28750
 Alpha virt. eigenvalues --    6.31020   6.31648   6.38816   6.40407   6.42127
 Alpha virt. eigenvalues --    6.45561   6.45805   6.52867   6.55447   6.61116
 Alpha virt. eigenvalues --    6.62488   6.66994   6.70517   6.72717   6.76417
 Alpha virt. eigenvalues --    6.78166   6.81541   6.82514   6.86890   6.88360
 Alpha virt. eigenvalues --    6.90361   6.92872   6.94776   6.98351   7.02491
 Alpha virt. eigenvalues --    7.04666   7.07316   7.10622   7.10952   7.15281
 Alpha virt. eigenvalues --    7.18024   7.25110   7.25985   7.27333   7.31241
 Alpha virt. eigenvalues --    7.31953   7.34163   7.37359   7.40665   7.42374
 Alpha virt. eigenvalues --    7.46286   7.49162   7.50784   7.52885   7.54631
 Alpha virt. eigenvalues --    7.57265   7.58686   7.64620   7.70242   7.70966
 Alpha virt. eigenvalues --    7.75627   7.79759   7.82451   7.85437   7.87313
 Alpha virt. eigenvalues --    7.88144   7.91140   7.95796   7.97732   8.01269
 Alpha virt. eigenvalues --    8.06151   8.08253   8.13442   8.19130   8.23927
 Alpha virt. eigenvalues --    8.24836   8.28070   8.32239   8.38473   8.42520
 Alpha virt. eigenvalues --    8.47647   8.49160   8.55466   8.57479   8.65388
 Alpha virt. eigenvalues --    8.67065   8.69720   8.74215   8.75910   8.81666
 Alpha virt. eigenvalues --    8.89345   8.91312   8.95656   9.02876   9.06709
 Alpha virt. eigenvalues --    9.15141   9.17683   9.22225   9.29788   9.31136
 Alpha virt. eigenvalues --    9.36302   9.43871   9.48142   9.52224   9.56409
 Alpha virt. eigenvalues --    9.60758   9.64343   9.68823   9.70199   9.76832
 Alpha virt. eigenvalues --    9.80365   9.86310   9.86814   9.94018   9.94835
 Alpha virt. eigenvalues --    9.99955  10.07626  10.14417  10.19774  10.24990
 Alpha virt. eigenvalues --   10.32621  10.34491  10.36785  10.42058  10.45962
 Alpha virt. eigenvalues --   10.48605  10.50342  10.52911  10.58610  10.61573
 Alpha virt. eigenvalues --   10.63250  10.72567  10.73955  10.81011  10.82615
 Alpha virt. eigenvalues --   10.87983  10.90774  10.96683  10.99580  11.05070
 Alpha virt. eigenvalues --   11.08286  11.13879  11.15016  11.17506  11.28699
 Alpha virt. eigenvalues --   11.32477  11.34050  11.43447  11.46650  11.51434
 Alpha virt. eigenvalues --   11.52730  11.53319  11.57999  11.60871  11.63648
 Alpha virt. eigenvalues --   11.71347  11.74904  11.77205  11.80839  11.85383
 Alpha virt. eigenvalues --   11.89386  12.00394  12.09062  12.10048  12.18625
 Alpha virt. eigenvalues --   12.25519  12.28792  12.34793  12.48343  12.49164
 Alpha virt. eigenvalues --   12.49636  12.51085  12.54178  12.59202  12.65985
 Alpha virt. eigenvalues --   12.67609  12.69767  12.71472  12.73894  12.74485
 Alpha virt. eigenvalues --   12.78062  12.79059  12.79405  12.81835  12.82707
 Alpha virt. eigenvalues --   12.84856  12.85547  12.88023  12.91062  12.93906
 Alpha virt. eigenvalues --   12.95338  12.96420  12.98884  13.00989  13.01681
 Alpha virt. eigenvalues --   13.04989  13.07475  13.09527  13.09747  13.14086
 Alpha virt. eigenvalues --   13.17221  13.19090  13.21947  13.25708  13.28762
 Alpha virt. eigenvalues --   13.30010  13.33244  13.34381  13.41014  13.46276
 Alpha virt. eigenvalues --   13.49819  13.52192  13.53555  13.55810  13.59378
 Alpha virt. eigenvalues --   13.62638  13.68432  13.68944  13.72024  13.73923
 Alpha virt. eigenvalues --   13.75174  13.78363  13.80119  13.83135  13.84833
 Alpha virt. eigenvalues --   13.87738  13.88979  13.92265  13.93356  13.97659
 Alpha virt. eigenvalues --   14.01263  14.02407  14.05308  14.06144  14.11736
 Alpha virt. eigenvalues --   14.13629  14.15266  14.16913  14.17781  14.19672
 Alpha virt. eigenvalues --   14.24691  14.28112  14.28920  14.30370  14.31272
 Alpha virt. eigenvalues --   14.33426  14.36765  14.37255  14.41018  14.42144
 Alpha virt. eigenvalues --   14.42560  14.46309  14.48446  14.49448  14.52101
 Alpha virt. eigenvalues --   14.52672  14.54372  14.57895  14.60516  14.65433
 Alpha virt. eigenvalues --   14.67517  14.70848  14.73354  14.74999  14.79514
 Alpha virt. eigenvalues --   14.82767  14.88866  14.90962  14.95714  14.99788
 Alpha virt. eigenvalues --   15.02611  15.05563  15.06554  15.14260  15.16597
 Alpha virt. eigenvalues --   15.18073  15.21473  15.24189  15.30291  15.31176
 Alpha virt. eigenvalues --   15.36932  15.43284  15.45586  15.49691  15.52972
 Alpha virt. eigenvalues --   15.60947  15.65028  15.70635  15.74097  15.81746
 Alpha virt. eigenvalues --   15.90330  15.95506  15.99584  16.01065  16.03254
 Alpha virt. eigenvalues --   16.07668  16.10099  16.19828  16.25956  16.28075
 Alpha virt. eigenvalues --   16.31596  16.32003  16.35714  16.46193  16.48228
 Alpha virt. eigenvalues --   16.63730  16.65181  16.70872  16.74202  16.74878
 Alpha virt. eigenvalues --   16.76893  16.83989  16.86613  16.90305  16.93728
 Alpha virt. eigenvalues --   16.95344  17.00035  17.04119  17.06202  17.11650
 Alpha virt. eigenvalues --   17.17760  17.29919  17.39644  17.47579  17.50101
 Alpha virt. eigenvalues --   17.58775  17.61568  17.67407  17.79547  17.83921
 Alpha virt. eigenvalues --   17.85165  17.92814  17.94502  17.98765  18.01207
 Alpha virt. eigenvalues --   18.05126  18.19111  18.22112  18.32911  18.36231
 Alpha virt. eigenvalues --   18.42148  18.43532  18.45495  18.52174  18.59879
 Alpha virt. eigenvalues --   18.61741  18.75160  18.76527  18.83698  18.85666
 Alpha virt. eigenvalues --   18.87788  18.90568  18.98890  19.07996  19.10684
 Alpha virt. eigenvalues --   19.12377  19.15361  19.18717  19.20014  19.25013
 Alpha virt. eigenvalues --   19.32581  19.39551  19.46420  19.47007  19.56327
 Alpha virt. eigenvalues --   19.57514  19.61546  19.73935  19.83532  19.89224
 Alpha virt. eigenvalues --   19.90258  19.96983  20.08999  20.22877  20.33779
 Alpha virt. eigenvalues --   20.42111  20.72586  20.89284  20.96574  20.99820
 Alpha virt. eigenvalues --   21.02048  21.13678  21.19207  21.29585  21.32314
 Alpha virt. eigenvalues --   21.47318  21.61861  21.78536  22.16964  22.35231
 Alpha virt. eigenvalues --   22.36669  22.48569  22.75393  23.03689  23.14101
 Alpha virt. eigenvalues --   23.22722  23.50572  23.51015  23.57298  23.80056
 Alpha virt. eigenvalues --   23.84754  24.10853  24.35614  25.50085  26.00612
 Alpha virt. eigenvalues --   40.83067  42.37761  53.66869  64.26089  65.35954
          Condensed to atoms (all electrons):
               1          2          3          4          5          6
     1  N    6.566351   0.405938   0.290327  -0.050411  -0.030711  -0.058302
     2  H    0.405938   0.431943  -0.033018   0.001129   0.006169  -0.006242
     3  C    0.290327  -0.033018   4.658160   0.370032   0.416679   0.464571
     4  C   -0.050411   0.001129   0.370032   4.138045  -0.020418  -0.047539
     5  H   -0.030711   0.006169   0.416679  -0.020418   0.628275  -0.038402
     6  H   -0.058302  -0.006242   0.464571  -0.047539  -0.038402   0.621309
     7  O    0.003569   0.000052  -0.061406   0.715875  -0.005715  -0.000292
     8  O   -0.009021  -0.001154  -0.076141   0.396756  -0.002900   0.003934
     9  H    0.410820  -0.031080  -0.034380   0.003726  -0.006641   0.000622
    10  H    0.014747  -0.000430  -0.012833  -0.033500  -0.000195   0.002064
               7          8          9         10
     1  N    0.003569  -0.009021   0.410820   0.014747
     2  H    0.000052  -0.001154  -0.031080  -0.000430
     3  C   -0.061406  -0.076141  -0.034380  -0.012833
     4  C    0.715875   0.396756   0.003726  -0.033500
     5  H   -0.005715  -0.002900  -0.006641  -0.000195
     6  H   -0.000292   0.003934   0.000622   0.002064
     7  O    7.897609  -0.078069  -0.000304   0.006190
     8  O   -0.078069   7.905337  -0.000401   0.306523
     9  H   -0.000304  -0.000401   0.426833  -0.000424
    10  H    0.006190   0.306523  -0.000424   0.366555
 Mulliken charges:
               1
     1  N   -0.543307
     2  H    0.226693
     3  C    0.018010
     4  C    0.526306
     5  H    0.053860
     6  H    0.058278
     7  O   -0.477508
     8  O   -0.444863
     9  H    0.231230
    10  H    0.351302
 Sum of Mulliken charges =  -0.00000
 Mulliken charges with hydrogens summed into heavy atoms:
               1
     1  N   -0.085385
     3  C    0.130148
     4  C    0.526306
     7  O   -0.477508
     8  O   -0.093561
 Electronic spatial extent (au):  <R**2>=            409.1227
 Charge=             -0.0000 electrons
 Dipole moment (field-independent basis, Debye):
    X=             -5.9012    Y=             -0.7065    Z=             -0.0102  Tot=              5.9434
 Quadrupole moment (field-independent basis, Debye-Ang):
   XX=            -32.1759   YY=            -31.2466   ZZ=            -27.1073
   XY=              1.8137   XZ=              0.5509   YZ=             -0.4817
 Traceless Quadrupole moment (field-independent basis, Debye-Ang):
   XX=             -1.9993   YY=             -1.0700   ZZ=              3.0693
   XY=              1.8137   XZ=              0.5509   YZ=             -0.4817
 Octapole moment (field-independent basis, Debye-Ang**2):
  XXX=            -25.9198  YYY=              2.1579  ZZZ=             -0.8267  XYY=             -4.5307
  XXY=              2.7159  XXZ=              0.2886  XZZ=             -3.7751  YZZ=             -0.5088
  YYZ=              0.0965  XYZ=              0.5907
 Hexadecapole moment (field-independent basis, Debye-Ang**3):
 XXXX=           -297.3744 YYYY=           -137.9274 ZZZZ=            -34.0951 XXXY=              9.5027
 XXXZ=             -0.7861 YYYX=             -3.2488 YYYZ=              0.9675 ZZZX=              2.2148
 ZZZY=             -1.0091 XXYY=            -84.3444 XXZZ=            -49.3184 YYZZ=            -28.4865
 XXYZ=             -2.3689 YYXZ=             -0.0081 ZZXY=              0.6147
 N-N= 1.810042851162D+02 E-N=-1.028491376308D+03  KE= 2.826793986905D+02
 No NMR shielding tensors so no spin-rotation constants.
 Leave Link  601 at Sat Oct 15 17:03:50 2016, MaxMem= 13421772800 cpu:        39.0
 (Enter /share/pub/jeff/software/g09/g09/l9999.exe)
 1\1\GINC-R01N18\SP\RHF\CC-pV5Z\C2H5N1O2\JIANGZHONGMING\15-Oct-2016\0\\
 #P HF cc-pV5Z\\start best geom PCCP paper\\0,1\N\H,1,1.0091\C,1,1.4609
 ,2,112.0646\C,3,1.5252,1,111.6045,2,101.3936,0\H,3,1.0891,1,110.2343,4
 ,117.8521,0\H,3,1.089,1,113.9016,4,-121.6454,0\O,4,1.2001,3,122.6125,1
 ,-171.93,0\O,4,1.3356,3,114.3853,1,8.8971,0\H,1,1.008,3,112.2608,4,-13
 6.9715,0\H,8,0.976,4,105.7699,3,-1.3866,0\\Version=ES64L-G09RevE.01\St
 ate=1-A\HF=-282.9699452\RMSD=7.840e-09\Dipole=-1.3850784,1.6420817,0.9
 234562\Quadrupole=-2.4012619,0.4056355,1.9956264,0.0853777,0.9039319,-
 0.598415\PG=C01 [X(C2H5N1O2)]\\@


 THE MORE POWERFUL THE METHOD, THE MORE CATASTROPHIC THE ERRORS.
     -- M.D. KAMEN
 Job cpu time:       0 days  5 hours 46 minutes 35.3 seconds.
 File lengths (MBytes):  RWF=    592 Int=      0 D2E=      0 Chk=     32 Scr=      8
 Normal termination of Gaussian 09 at Sat Oct 15 17:03:50 2016.
