 Entering Gaussian System, Link 0=g09
 Initial command:
 /share/pub/jeff/software/g09/g09/l1.exe "/share/home/jiangzhongming/tmp/Gau-40863.inp" -scrdir="/share/home/jiangzhongming/tmp/"
 Entering Link 1 = /share/pub/jeff/software/g09/g09/l1.exe PID=     40864.
  
 Copyright (c) 1988,1990,1992,1993,1995,1998,2003,2009,2015,
            Gaussian, Inc.  All Rights Reserved.
  
 This is part of the Gaussian(R) 09 program.  It is based on
 the Gaussian(R) 03 system (copyright 2003, Gaussian, Inc.),
 the Gaussian(R) 98 system (copyright 1998, Gaussian, Inc.),
 the Gaussian(R) 94 system (copyright 1995, Gaussian, Inc.),
 the Gaussian 92(TM) system (copyright 1992, Gaussian, Inc.),
 the Gaussian 90(TM) system (copyright 1990, Gaussian, Inc.),
 the Gaussian 88(TM) system (copyright 1988, Gaussian, Inc.),
 the Gaussian 86(TM) system (copyright 1986, Carnegie Mellon
 University), and the Gaussian 82(TM) system (copyright 1983,
 Carnegie Mellon University). Gaussian is a federally registered
 trademark of Gaussian, Inc.
  
 This software contains proprietary and confidential information,
 including trade secrets, belonging to Gaussian, Inc.
  
 This software is provided under written license and may be
 used, copied, transmitted, or stored only in accord with that
 written license.
  
 The following legend is applicable only to US Government
 contracts under FAR:
  
                    RESTRICTED RIGHTS LEGEND
  
 Use, reproduction and disclosure by the US Government is
 subject to restrictions as set forth in subparagraphs (a)
 and (c) of the Commercial Computer Software - Restricted
 Rights clause in FAR 52.227-19.
  
 Gaussian, Inc.
 340 Quinnipiac St., Bldg. 40, Wallingford CT 06492
  
  
 ---------------------------------------------------------------
 Warning -- This program may not be used in any manner that
 competes with the business of Gaussian, Inc. or will provide
 assistance to any competitor of Gaussian, Inc.  The licensee
 of this program is prohibited from giving any competitor of
 Gaussian, Inc. access to this program.  By using this program,
 the user acknowledges that Gaussian, Inc. is engaged in the
 business of creating and licensing software in the field of
 computational chemistry and represents and warrants to the
 licensee that it is not a competitor of Gaussian, Inc. and that
 it will not use this program in any manner prohibited above.
 ---------------------------------------------------------------
  

 Cite this work as:
 Gaussian 09, Revision E.01,
 M. J. Frisch, G. W. Trucks, H. B. Schlegel, G. E. Scuseria, 
 M. A. Robb, J. R. Cheeseman, G. Scalmani, V. Barone, B. Mennucci, 
 G. A. Petersson, H. Nakatsuji, M. Caricato, X. Li, H. P. Hratchian, 
 A. F. Izmaylov, J. Bloino, G. Zheng, J. L. Sonnenberg, M. Hada, 
 M. Ehara, K. Toyota, R. Fukuda, J. Hasegawa, M. Ishida, T. Nakajima, 
 Y. Honda, O. Kitao, H. Nakai, T. Vreven, J. A. Montgomery, Jr., 
 J. E. Peralta, F. Ogliaro, M. Bearpark, J. J. Heyd, E. Brothers, 
 K. N. Kudin, V. N. Staroverov, T. Keith, R. Kobayashi, J. Normand, 
 K. Raghavachari, A. Rendell, J. C. Burant, S. S. Iyengar, J. Tomasi, 
 M. Cossi, N. Rega, J. M. Millam, M. Klene, J. E. Knox, J. B. Cross, 
 V. Bakken, C. Adamo, J. Jaramillo, R. Gomperts, R. E. Stratmann, 
 O. Yazyev, A. J. Austin, R. Cammi, C. Pomelli, J. W. Ochterski, 
 R. L. Martin, K. Morokuma, V. G. Zakrzewski, G. A. Voth, 
 P. Salvador, J. J. Dannenberg, S. Dapprich, A. D. Daniels, 
 O. Farkas, J. B. Foresman, J. V. Ortiz, J. Cioslowski, 
 and D. J. Fox, Gaussian, Inc., Wallingford CT, 2013.
 
 ******************************************
 Gaussian 09:  ES64L-G09RevE.01 30-Nov-2015
                15-Oct-2016 
 ******************************************
 %chk=gct_Best_geom_HF_V5Z.chk
 %nprocshared=32
 Will use up to   32 processors via shared memory.
 %mem=100GB
 -------------
 #P HF cc-pV5Z
 -------------
 1/38=1/1;
 2/12=2,17=6,18=5,40=1/2;
 3/5=16,6=3,11=9,16=1,25=1,30=1/1,2,3;
 4//1;
 5/5=2,38=5/2;
 6/7=2,8=2,9=2,10=2,28=1/1;
 99/5=1,9=1/99;
 Leave Link    1 at Sat Oct 15 17:03:50 2016, MaxMem= 13421772800 cpu:         5.3
 (Enter /share/pub/jeff/software/g09/g09/l101.exe)
 --------------------------
 start best geom PCCP paper
 --------------------------
 Symbolic Z-matrix:
 Charge =  0 Multiplicity = 1
 C
 O                    1    B1
 O                    1    B2       2    A1
 H                    2    B3       1    A2       3    D1       0
 C                    1    B4       3    A3       2    D2       0
 N                    5    B5       1    A4       3    D3       0
 H                    5    B6       1    A5       3    D4       0
 H                    5    B7       1    A6       3    D5       0
 H                    6    B8       5    A7       1    D6       0
 H                    6    B9       5    A8       1    D7       0
       Variables:
  B1                    1.3486                   
  B2                    1.20239                  
  A1                  122.85413                  
  B3                    0.96515                  
  A2                  106.77622                  
  D1                    0.85878                  
  B4                    1.50625                  
  A3                  125.06726                  
  D2                 -176.8326                   
  B5                    1.45443                  
  A4                  111.81084                  
  D3                 -146.04703                  
  B6                    1.09773                  
  A5                  105.69489                  
  D4                   88.80239                  
  B7                    1.08654                  
  A6                  106.9966                   
  D5                  -25.78313                  
  B8                    1.00989                  
  A7                  110.58167                  
  D6                 -178.47161                  
  B9                    1.01063                  
  A8                  111.13985                  
  D7                  -58.48891                  
 
 NAtoms=     10 NQM=       10 NQMF=       0 NMMI=      0 NMMIF=      0
                NMic=       0 NMicF=      0.
                    Isotopes and Nuclear Properties:
 (Nuclear quadrupole moments (NQMom) in fm**2, nuclear magnetic moments (NMagM)
  in nuclear magnetons)

  Atom         1           2           3           4           5           6           7           8           9          10
 IAtWgt=          12          16          16           1          12          14           1           1           1           1
 AtmWgt=  12.0000000  15.9949146  15.9949146   1.0078250  12.0000000  14.0030740   1.0078250   1.0078250   1.0078250   1.0078250
 NucSpn=           0           0           0           1           0           2           1           1           1           1
 AtZEff=   0.0000000   0.0000000   0.0000000   0.0000000   0.0000000   0.0000000   0.0000000   0.0000000   0.0000000   0.0000000
 NQMom=    0.0000000   0.0000000   0.0000000   0.0000000   0.0000000   2.0440000   0.0000000   0.0000000   0.0000000   0.0000000
 NMagM=    0.0000000   0.0000000   0.0000000   2.7928460   0.0000000   0.4037610   2.7928460   2.7928460   2.7928460   2.7928460
 AtZNuc=   6.0000000   8.0000000   8.0000000   1.0000000   6.0000000   7.0000000   1.0000000   1.0000000   1.0000000   1.0000000
 Leave Link  101 at Sat Oct 15 17:03:50 2016, MaxMem= 13421772800 cpu:         2.4
 (Enter /share/pub/jeff/software/g09/g09/l202.exe)
                          Input orientation:                          
 ---------------------------------------------------------------------
 Center     Atomic      Atomic             Coordinates (Angstroms)
 Number     Number       Type             X           Y           Z
 ---------------------------------------------------------------------
      1          6           0        0.000000    0.000000    0.000000
      2          8           0        0.000000    0.000000    1.348600
      3          8           0        1.010073    0.000000   -0.652299
      4          1           0        0.923971    0.013850    1.627176
      5          6           0       -1.394774   -0.068118   -0.564585
      6          7           0       -2.339318    0.696016    0.234978
      7          1           0       -1.629765   -1.137206   -0.647301
      8          1           0       -1.350295    0.339091   -1.570950
      9          1           0       -3.271551    0.617353   -0.145326
     10          1           0       -2.361616    0.363761    1.189170
 ---------------------------------------------------------------------
                    Distance matrix (angstroms):
                    1          2          3          4          5
     1  C    0.000000
     2  O    1.348600   0.000000
     3  O    1.202390   2.241393   0.000000
     4  H    1.871260   0.965152   2.281143   0.000000
     5  C    1.506250   2.368609   2.407410   3.191725   0.000000
     6  N    2.451951   2.682723   3.534136   3.612841   1.454430
     7  H    2.090064   2.816556   2.874370   3.608288   1.097730
     8  H    2.099086   3.234510   2.555434   3.937776   1.086540
     9  H    3.332461   3.649108   4.355509   4.594386   2.041554
    10  H    2.669022   2.394780   3.858966   3.333072   2.048648
                    6          7          8          9         10
     6  N    0.000000
     7  H    2.154666   0.000000
     8  H    2.089722   1.763713   0.000000
     9  H    1.009890   2.454775   2.408539   0.000000
    10  H    1.010630   2.482163   2.939667   1.634983   0.000000
 Stoichiometry    C2H5NO2
 Framework group  C1[X(C2H5NO2)]
 Deg. of freedom    24
 Full point group                 C1      NOp   1
 Largest Abelian subgroup         C1      NOp   1
 Largest concise Abelian subgroup C1      NOp   1
                         Standard orientation:                         
 ---------------------------------------------------------------------
 Center     Atomic      Atomic             Coordinates (Angstroms)
 Number     Number       Type             X           Y           Z
 ---------------------------------------------------------------------
      1          6           0        0.618518   -0.113452    0.015582
      2          8           0        0.629857    1.232314    0.102216
      3          8           0        1.611391   -0.762918   -0.179712
      4          1           0        1.543352    1.512541   -0.033863
      5          6           0       -0.754494   -0.683284    0.258311
      6          7           0       -1.797230    0.162725   -0.300561
      7          1           0       -0.825344   -0.835413    1.343137
      8          1           0       -0.780740   -1.661095   -0.214728
      9          1           0       -2.709920   -0.223225   -0.105836
     10          1           0       -1.760866    1.093359    0.091830
 ---------------------------------------------------------------------
 Rotational constants (GHZ):      9.8584150      4.1013166      3.0576867
 Leave Link  202 at Sat Oct 15 17:03:51 2016, MaxMem= 13421772800 cpu:         3.1
 (Enter /share/pub/jeff/software/g09/g09/l301.exe)
 Standard basis: CC-pV5Z (5D, 7F)
 Ernie: Thresh=  0.10000D-02 Tol=  0.10000D-05 Strict=F.
 Ernie:  20 primitive shells out of 300 were deleted.
 There are   980 symmetry adapted cartesian basis functions of A   symmetry.
 There are   730 symmetry adapted basis functions of A   symmetry.
   730 basis functions,  1110 primitive gaussians,   980 cartesian basis functions
    20 alpha electrons       20 beta electrons
       nuclear repulsion energy       180.5919118644 Hartrees.
 IExCor=    0 DFT=F Ex=HF Corr=None ExCW=0 ScaHFX=  1.000000
 ScaDFX=  1.000000  1.000000  1.000000  1.000000 ScalE2=  1.000000  1.000000
 IRadAn=      0 IRanWt=     -1 IRanGd=            0 ICorTp=0 IEmpDi=  4
 NAtoms=   10 NActive=   10 NUniq=   10 SFac= 1.00D+00 NAtFMM=   60 NAOKFM=F Big=F
 Integral buffers will be    131072 words long.
 Raffenetti 1 integral format.
 Two-electron integral symmetry is turned on.
 Leave Link  301 at Sat Oct 15 17:03:51 2016, MaxMem= 13421772800 cpu:         3.9
 (Enter /share/pub/jeff/software/g09/g09/l302.exe)
 NPDir=0 NMtPBC=     1 NCelOv=     1 NCel=       1 NClECP=     1 NCelD=      1
         NCelK=      1 NCelE2=     1 NClLst=     1 CellRange=     0.0.
 One-electron integrals computed using PRISM.
 NBasis=   730 RedAO= T EigKep=  1.53D-05  NBF=   730
 NBsUse=   730 1.00D-06 EigRej= -1.00D+00 NBFU=   730
 Leave Link  302 at Sat Oct 15 17:03:52 2016, MaxMem= 13421772800 cpu:        25.1
 (Enter /share/pub/jeff/software/g09/g09/l303.exe)
 DipDrv:  MaxL=1.
 Leave Link  303 at Sat Oct 15 17:03:52 2016, MaxMem= 13421772800 cpu:         5.6
 (Enter /share/pub/jeff/software/g09/g09/l401.exe)
 ExpMin= 7.28D-02 ExpMax= 1.64D+05 ExpMxC= 5.16D+02 IAcc=2 IRadAn=         4 AccDes= 0.00D+00
 Harris functional with IExCor=  205 and IRadAn=       4 diagonalized for initial guess.
 HarFok:  IExCor=  205 AccDes= 0.00D+00 IRadAn=         4 IDoV= 1 UseB2=F ITyADJ=14
 ICtDFT=  3500011 ScaDFX=  1.000000  1.000000  1.000000  1.000000
 FoFCou: FMM=F IPFlag=           0 FMFlag=      100000 FMFlg1=           0
         NFxFlg=           0 DoJE=T BraDBF=F KetDBF=T FulRan=T
         wScrn=  0.000000 ICntrl=     500 IOpCl=  0 I1Cent=   200000004 NGrid=           0
         NMat0=    1 NMatS0=      1 NMatT0=    0 NMatD0=    1 NMtDS0=    0 NMtDT0=    0
 Petite list used in FoFCou.
 Harris En= -283.254388342531    
 JPrj=0 DoOrth=F DoCkMO=F.
 Leave Link  401 at Sat Oct 15 17:03:53 2016, MaxMem= 13421772800 cpu:        33.0
 (Enter /share/pub/jeff/software/g09/g09/l502.exe)
 Closed shell SCF:
 Using DIIS extrapolation, IDIIS=  1040.
 Integral symmetry usage will be decided dynamically.
 IVT=     2937920 IEndB=     2937920 NGot= 13421772800 MDV= 13419812901
 LenX= 13419812901 LenY= 13418851521
 Requested convergence on RMS density matrix=1.00D-08 within 128 cycles.
 Requested convergence on MAX density matrix=1.00D-06.
 Requested convergence on             energy=1.00D-06.
 No special actions if energy rises.
 Fock matrices will be formed incrementally for  20 cycles.
 Integral accuracy reduced to 1.0D-05 until final iterations.

 Cycle   1  Pass 0  IDiag  1:
 FoFJK:  IHMeth= 1 ICntrl=       0 DoSepK=F KAlg= 0 I1Cent=   0 FoldK=F
 IRaf= 930000000 NMat=   1 IRICut=       1 DoRegI=T DoRafI=F ISym2E= 0.
 FoFCou: FMM=F IPFlag=           0 FMFlag=      100000 FMFlg1=           0
         NFxFlg=           0 DoJE=F BraDBF=F KetDBF=F FulRan=T
         wScrn=  0.000000 ICntrl=       0 IOpCl=  0 I1Cent=           0 NGrid=           0
         NMat0=    1 NMatS0=      1 NMatT0=    0 NMatD0=    1 NMtDS0=    0 NMtDT0=    0
 Symmetry not used in FoFCou.
 E= -282.725570262405    
 DIIS: error= 2.25D-02 at cycle   1 NSaved=   1.
 NSaved= 1 IEnMin= 1 EnMin= -282.725570262405     IErMin= 1 ErrMin= 2.25D-02
 ErrMax= 2.25D-02  0.00D+00 EMaxC= 1.00D-01 BMatC= 6.64D-01 BMatP= 6.64D-01
 IDIUse=3 WtCom= 7.75D-01 WtEn= 2.25D-01
 Coeff-Com:  0.100D+01
 Coeff-En:   0.100D+01
 Coeff:      0.100D+01
 Gap=     0.517 Goal=   None    Shift=    0.000
 GapD=    0.517 DampG=2.000 DampE=0.500 DampFc=1.0000 IDamp=-1.
 RMSDP=6.77D-04 MaxDP=7.82D-02              OVMax= 1.21D-01

 Cycle   2  Pass 0  IDiag  1:
 RMSU=  6.74D-04    CP:  9.76D-01
 E= -282.915104059083     Delta-E=       -0.189533796678 Rises=F Damp=F
 DIIS: error= 1.24D-02 at cycle   2 NSaved=   2.
 NSaved= 2 IEnMin= 2 EnMin= -282.915104059083     IErMin= 2 ErrMin= 1.24D-02
 ErrMax= 1.24D-02  0.00D+00 EMaxC= 1.00D-01 BMatC= 8.23D-02 BMatP= 6.64D-01
 IDIUse=3 WtCom= 8.76D-01 WtEn= 1.24D-01
 Coeff-Com:  0.185D+00 0.815D+00
 Coeff-En:   0.000D+00 0.100D+01
 Coeff:      0.162D+00 0.838D+00
 Gap=     0.524 Goal=   None    Shift=    0.000
 RMSDP=3.89D-04 MaxDP=4.70D-02 DE=-1.90D-01 OVMax= 5.73D-02

 Cycle   3  Pass 0  IDiag  1:
 RMSU=  2.19D-04    CP:  9.81D-01  5.23D-01
 E= -282.962596327079     Delta-E=       -0.047492267996 Rises=F Damp=F
 DIIS: error= 3.41D-03 at cycle   3 NSaved=   3.
 NSaved= 3 IEnMin= 3 EnMin= -282.962596327079     IErMin= 3 ErrMin= 3.41D-03
 ErrMax= 3.41D-03  0.00D+00 EMaxC= 1.00D-01 BMatC= 1.16D-02 BMatP= 8.23D-02
 IDIUse=3 WtCom= 9.66D-01 WtEn= 3.41D-02
 Coeff-Com: -0.256D-01 0.244D+00 0.781D+00
 Coeff-En:   0.000D+00 0.000D+00 0.100D+01
 Coeff:     -0.247D-01 0.236D+00 0.789D+00
 Gap=     0.494 Goal=   None    Shift=    0.000
 RMSDP=5.24D-05 MaxDP=5.46D-03 DE=-4.75D-02 OVMax= 2.42D-02

 Cycle   4  Pass 0  IDiag  1:
 RMSU=  3.80D-05    CP:  9.79D-01  5.76D-01  9.77D-01
 E= -282.969911431478     Delta-E=       -0.007315104399 Rises=F Damp=F
 DIIS: error= 7.64D-04 at cycle   4 NSaved=   4.
 NSaved= 4 IEnMin= 4 EnMin= -282.969911431478     IErMin= 4 ErrMin= 7.64D-04
 ErrMax= 7.64D-04  0.00D+00 EMaxC= 1.00D-01 BMatC= 3.28D-04 BMatP= 1.16D-02
 IDIUse=3 WtCom= 9.92D-01 WtEn= 7.64D-03
 Coeff-Com: -0.103D-01 0.534D-01 0.230D+00 0.727D+00
 Coeff-En:   0.000D+00 0.000D+00 0.000D+00 0.100D+01
 Coeff:     -0.102D-01 0.530D-01 0.228D+00 0.729D+00
 Gap=     0.490 Goal=   None    Shift=    0.000
 RMSDP=1.52D-05 MaxDP=1.06D-03 DE=-7.32D-03 OVMax= 4.35D-03

 Cycle   5  Pass 0  IDiag  1:
 RMSU=  1.19D-05    CP:  9.79D-01  5.70D-01  1.02D+00  9.79D-01
 E= -282.970198078033     Delta-E=       -0.000286646555 Rises=F Damp=F
 DIIS: error= 3.07D-04 at cycle   5 NSaved=   5.
 NSaved= 5 IEnMin= 5 EnMin= -282.970198078033     IErMin= 5 ErrMin= 3.07D-04
 ErrMax= 3.07D-04  0.00D+00 EMaxC= 1.00D-01 BMatC= 3.02D-05 BMatP= 3.28D-04
 IDIUse=3 WtCom= 9.97D-01 WtEn= 3.07D-03
 Coeff-Com:  0.190D-02-0.227D-01-0.728D-01 0.794D-01 0.101D+01
 Coeff-En:   0.000D+00 0.000D+00 0.000D+00 0.000D+00 0.100D+01
 Coeff:      0.190D-02-0.227D-01-0.726D-01 0.792D-01 0.101D+01
 Gap=     0.492 Goal=   None    Shift=    0.000
 RMSDP=1.42D-05 MaxDP=2.10D-03 DE=-2.87D-04 OVMax= 3.48D-03

 Cycle   6  Pass 0  IDiag  1:
 RMSU=  4.72D-06    CP:  9.79D-01  5.57D-01  1.05D+00  1.14D+00  1.18D+00
 E= -282.970249986181     Delta-E=       -0.000051908148 Rises=F Damp=F
 DIIS: error= 6.77D-05 at cycle   6 NSaved=   6.
 NSaved= 6 IEnMin= 6 EnMin= -282.970249986181     IErMin= 6 ErrMin= 6.77D-05
 ErrMax= 6.77D-05  0.00D+00 EMaxC= 1.00D-01 BMatC= 4.46D-06 BMatP= 3.02D-05
 IDIUse=1 WtCom= 1.00D+00 WtEn= 0.00D+00
 Coeff-Com:  0.146D-02-0.110D-01-0.395D-01-0.737D-01 0.199D+00 0.923D+00
 Coeff:      0.146D-02-0.110D-01-0.395D-01-0.737D-01 0.199D+00 0.923D+00
 Gap=     0.492 Goal=   None    Shift=    0.000
 RMSDP=5.16D-06 MaxDP=6.69D-04 DE=-5.19D-05 OVMax= 1.01D-03

 Initial convergence to 1.0D-05 achieved.  Increase integral accuracy.
 Cycle   7  Pass 1  IDiag  1:
 E= -282.970257104298     Delta-E=       -0.000007118117 Rises=F Damp=F
 DIIS: error= 4.79D-05 at cycle   1 NSaved=   1.
 NSaved= 1 IEnMin= 1 EnMin= -282.970257104298     IErMin= 1 ErrMin= 4.79D-05
 ErrMax= 4.79D-05  0.00D+00 EMaxC= 1.00D-01 BMatC= 3.20D-06 BMatP= 3.20D-06
 IDIUse=1 WtCom= 1.00D+00 WtEn= 0.00D+00
 Coeff-Com:  0.100D+01
 Coeff:      0.100D+01
 Gap=     0.492 Goal=   None    Shift=    0.000
 RMSDP=5.16D-06 MaxDP=6.69D-04 DE=-7.12D-06 OVMax= 4.79D-04

 Cycle   8  Pass 1  IDiag  1:
 RMSU=  2.30D-05    CP:  1.00D+00
 E= -282.970258598181     Delta-E=       -0.000001493883 Rises=F Damp=F
 DIIS: error= 2.26D-05 at cycle   2 NSaved=   2.
 NSaved= 2 IEnMin= 2 EnMin= -282.970258598181     IErMin= 2 ErrMin= 2.26D-05
 ErrMax= 2.26D-05  0.00D+00 EMaxC= 1.00D-01 BMatC= 1.62D-07 BMatP= 3.20D-06
 IDIUse=1 WtCom= 1.00D+00 WtEn= 0.00D+00
 Coeff-Com:  0.771D-02 0.992D+00
 Coeff:      0.771D-02 0.992D+00
 Gap=     0.492 Goal=   None    Shift=    0.000
 RMSDP=1.07D-06 MaxDP=7.37D-05 DE=-1.49D-06 OVMax= 2.83D-04

 Cycle   9  Pass 1  IDiag  1:
 RMSU=  6.42D-07    CP:  1.00D+00  1.04D+00
 E= -282.970258945709     Delta-E=       -0.000000347527 Rises=F Damp=F
 DIIS: error= 9.72D-06 at cycle   3 NSaved=   3.
 NSaved= 3 IEnMin= 3 EnMin= -282.970258945709     IErMin= 3 ErrMin= 9.72D-06
 ErrMax= 9.72D-06  0.00D+00 EMaxC= 1.00D-01 BMatC= 6.12D-08 BMatP= 1.62D-07
 IDIUse=1 WtCom= 1.00D+00 WtEn= 0.00D+00
 Coeff-Com: -0.382D-01 0.196D+00 0.842D+00
 Coeff:     -0.382D-01 0.196D+00 0.842D+00
 Gap=     0.492 Goal=   None    Shift=    0.000
 RMSDP=3.08D-07 MaxDP=2.95D-05 DE=-3.48D-07 OVMax= 1.39D-04

 Cycle  10  Pass 1  IDiag  1:
 RMSU=  1.98D-07    CP:  1.00D+00  1.04D+00  1.35D+00
 E= -282.970259058483     Delta-E=       -0.000000112774 Rises=F Damp=F
 DIIS: error= 7.77D-06 at cycle   4 NSaved=   4.
 NSaved= 4 IEnMin= 4 EnMin= -282.970259058483     IErMin= 4 ErrMin= 7.77D-06
 ErrMax= 7.77D-06  0.00D+00 EMaxC= 1.00D-01 BMatC= 1.47D-08 BMatP= 6.12D-08
 IDIUse=1 WtCom= 1.00D+00 WtEn= 0.00D+00
 Coeff-Com:  0.428D-02-0.417D+00-0.209D+00 0.162D+01
 Coeff:      0.428D-02-0.417D+00-0.209D+00 0.162D+01
 Gap=     0.492 Goal=   None    Shift=    0.000
 RMSDP=3.91D-07 MaxDP=2.96D-05 DE=-1.13D-07 OVMax= 2.20D-04

 Cycle  11  Pass 1  IDiag  1:
 RMSU=  1.29D-07    CP:  1.00D+00  1.04D+00  1.83D+00  2.02D+00
 E= -282.970259118412     Delta-E=       -0.000000059930 Rises=F Damp=F
 DIIS: error= 7.37D-07 at cycle   5 NSaved=   5.
 NSaved= 5 IEnMin= 5 EnMin= -282.970259118412     IErMin= 5 ErrMin= 7.37D-07
 ErrMax= 7.37D-07  0.00D+00 EMaxC= 1.00D-01 BMatC= 5.36D-10 BMatP= 1.47D-08
 IDIUse=1 WtCom= 1.00D+00 WtEn= 0.00D+00
 Coeff-Com:  0.247D-02-0.133D+00-0.977D-01 0.488D+00 0.740D+00
 Coeff:      0.247D-02-0.133D+00-0.977D-01 0.488D+00 0.740D+00
 Gap=     0.492 Goal=   None    Shift=    0.000
 RMSDP=4.16D-08 MaxDP=3.24D-06 DE=-5.99D-08 OVMax= 1.13D-05

 Cycle  12  Pass 1  IDiag  1:
 RMSU=  2.48D-08    CP:  1.00D+00  1.04D+00  1.84D+00  2.10D+00  1.18D+00
 E= -282.970259119100     Delta-E=       -0.000000000688 Rises=F Damp=F
 DIIS: error= 3.21D-07 at cycle   6 NSaved=   6.
 NSaved= 6 IEnMin= 6 EnMin= -282.970259119100     IErMin= 6 ErrMin= 3.21D-07
 ErrMax= 3.21D-07  0.00D+00 EMaxC= 1.00D-01 BMatC= 4.69D-11 BMatP= 5.36D-10
 IDIUse=1 WtCom= 1.00D+00 WtEn= 0.00D+00
 Coeff-Com: -0.790D-03 0.661D-01 0.311D-01-0.234D+00-0.101D+00 0.124D+01
 Coeff:     -0.790D-03 0.661D-01 0.311D-01-0.234D+00-0.101D+00 0.124D+01
 Gap=     0.492 Goal=   None    Shift=    0.000
 RMSDP=3.21D-08 MaxDP=5.21D-06 DE=-6.88D-10 OVMax= 4.11D-06

 Cycle  13  Pass 1  IDiag  1:
 RMSU=  1.14D-08    CP:  1.00D+00  1.04D+00  1.81D+00  2.09D+00  1.28D+00
                    CP:  1.72D+00
 E= -282.970259119196     Delta-E=       -0.000000000096 Rises=F Damp=F
 DIIS: error= 1.22D-07 at cycle   7 NSaved=   7.
 NSaved= 7 IEnMin= 7 EnMin= -282.970259119196     IErMin= 7 ErrMin= 1.22D-07
 ErrMax= 1.22D-07  0.00D+00 EMaxC= 1.00D-01 BMatC= 1.32D-11 BMatP= 4.69D-11
 IDIUse=1 WtCom= 1.00D+00 WtEn= 0.00D+00
 Coeff-Com: -0.664D-03 0.442D-01 0.239D-01-0.158D+00-0.167D+00 0.449D+00
 Coeff-Com:  0.809D+00
 Coeff:     -0.664D-03 0.442D-01 0.239D-01-0.158D+00-0.167D+00 0.449D+00
 Coeff:      0.809D+00
 Gap=     0.492 Goal=   None    Shift=    0.000
 RMSDP=1.01D-08 MaxDP=1.68D-06 DE=-9.60D-11 OVMax= 1.16D-06

 Cycle  14  Pass 1  IDiag  1:
 RMSU=  2.84D-09    CP:  1.00D+00  1.04D+00  1.81D+00  2.08D+00  1.31D+00
                    CP:  2.03D+00  1.32D+00
 E= -282.970259119198     Delta-E=       -0.000000000002 Rises=F Damp=F
 DIIS: error= 1.99D-08 at cycle   8 NSaved=   8.
 NSaved= 8 IEnMin= 8 EnMin= -282.970259119198     IErMin= 8 ErrMin= 1.99D-08
 ErrMax= 1.99D-08  0.00D+00 EMaxC= 1.00D-01 BMatC= 2.87D-13 BMatP= 1.32D-11
 IDIUse=1 WtCom= 1.00D+00 WtEn= 0.00D+00
 Coeff-Com:  0.798D-04-0.636D-02-0.365D-02 0.242D-01 0.103D-01-0.104D+00
 Coeff-Com: -0.372D-01 0.112D+01
 Coeff:      0.798D-04-0.636D-02-0.365D-02 0.242D-01 0.103D-01-0.104D+00
 Coeff:     -0.372D-01 0.112D+01
 Gap=     0.492 Goal=   None    Shift=    0.000
 RMSDP=3.42D-09 MaxDP=2.73D-07 DE=-1.65D-12 OVMax= 3.03D-07

 SCF Done:  E(RHF) =  -282.970259119     A.U. after   14 cycles
            NFock= 14  Conv=0.34D-08     -V/T= 2.0010
 KE= 2.826815077263D+02 PE=-1.027676142636D+03 EE= 2.814324639256D+02
 Leave Link  502 at Sat Oct 15 17:15:17 2016, MaxMem= 13421772800 cpu:     21500.7
 (Enter /share/pub/jeff/software/g09/g09/l601.exe)
 Copying SCF densities to generalized density rwf, IOpCl= 0 IROHF=0.

 **********************************************************************

            Population analysis using the SCF density.

 **********************************************************************

 Orbital symmetries:
       Occupied  (A) (A) (A) (A) (A) (A) (A) (A) (A) (A) (A) (A)
                 (A) (A) (A) (A) (A) (A) (A) (A)
       Virtual   (A) (A) (A) (A) (A) (A) (A) (A) (A) (A) (A) (A)
                 (A) (A) (A) (A) (A) (A) (A) (A) (A) (A) (A) (A)
                 (A) (A) (A) (A) (A) (A) (A) (A) (A) (A) (A) (A)
                 (A) (A) (A) (A) (A) (A) (A) (A) (A) (A) (A) (A)
                 (A) (A) (A) (A) (A) (A) (A) (A) (A) (A) (A) (A)
                 (A) (A) (A) (A) (A) (A) (A) (A) (A) (A) (A) (A)
                 (A) (A) (A) (A) (A) (A) (A) (A) (A) (A) (A) (A)
                 (A) (A) (A) (A) (A) (A) (A) (A) (A) (A) (A) (A)
                 (A) (A) (A) (A) (A) (A) (A) (A) (A) (A) (A) (A)
                 (A) (A) (A) (A) (A) (A) (A) (A) (A) (A) (A) (A)
                 (A) (A) (A) (A) (A) (A) (A) (A) (A) (A) (A) (A)
                 (A) (A) (A) (A) (A) (A) (A) (A) (A) (A) (A) (A)
                 (A) (A) (A) (A) (A) (A) (A) (A) (A) (A) (A) (A)
                 (A) (A) (A) (A) (A) (A) (A) (A) (A) (A) (A) (A)
                 (A) (A) (A) (A) (A) (A) (A) (A) (A) (A) (A) (A)
                 (A) (A) (A) (A) (A) (A) (A) (A) (A) (A) (A) (A)
                 (A) (A) (A) (A) (A) (A) (A) (A) (A) (A) (A) (A)
                 (A) (A) (A) (A) (A) (A) (A) (A) (A) (A) (A) (A)
                 (A) (A) (A) (A) (A) (A) (A) (A) (A) (A) (A) (A)
                 (A) (A) (A) (A) (A) (A) (A) (A) (A) (A) (A) (A)
                 (A) (A) (A) (A) (A) (A) (A) (A) (A) (A) (A) (A)
                 (A) (A) (A) (A) (A) (A) (A) (A) (A) (A) (A) (A)
                 (A) (A) (A) (A) (A) (A) (A) (A) (A) (A) (A) (A)
                 (A) (A) (A) (A) (A) (A) (A) (A) (A) (A) (A) (A)
                 (A) (A) (A) (A) (A) (A) (A) (A) (A) (A) (A) (A)
                 (A) (A) (A) (A) (A) (A) (A) (A) (A) (A) (A) (A)
                 (A) (A) (A) (A) (A) (A) (A) (A) (A) (A) (A) (A)
                 (A) (A) (A) (A) (A) (A) (A) (A) (A) (A) (A) (A)
                 (A) (A) (A) (A) (A) (A) (A) (A) (A) (A) (A) (A)
                 (A) (A) (A) (A) (A) (A) (A) (A) (A) (A) (A) (A)
                 (A) (A) (A) (A) (A) (A) (A) (A) (A) (A) (A) (A)
                 (A) (A) (A) (A) (A) (A) (A) (A) (A) (A) (A) (A)
                 (A) (A) (A) (A) (A) (A) (A) (A) (A) (A) (A) (A)
                 (A) (A) (A) (A) (A) (A) (A) (A) (A) (A) (A) (A)
                 (A) (A) (A) (A) (A) (A) (A) (A) (A) (A) (A) (A)
                 (A) (A) (A) (A) (A) (A) (A) (A) (A) (A) (A) (A)
                 (A) (A) (A) (A) (A) (A) (A) (A) (A) (A) (A) (A)
                 (A) (A) (A) (A) (A) (A) (A) (A) (A) (A) (A) (A)
                 (A) (A) (A) (A) (A) (A) (A) (A) (A) (A) (A) (A)
                 (A) (A) (A) (A) (A) (A) (A) (A) (A) (A) (A) (A)
                 (A) (A) (A) (A) (A) (A) (A) (A) (A) (A) (A) (A)
                 (A) (A) (A) (A) (A) (A) (A) (A) (A) (A) (A) (A)
                 (A) (A) (A) (A) (A) (A) (A) (A) (A) (A) (A) (A)
                 (A) (A) (A) (A) (A) (A) (A) (A) (A) (A) (A) (A)
                 (A) (A) (A) (A) (A) (A) (A) (A) (A) (A) (A) (A)
                 (A) (A) (A) (A) (A) (A) (A) (A) (A) (A) (A) (A)
                 (A) (A) (A) (A) (A) (A) (A) (A) (A) (A) (A) (A)
                 (A) (A) (A) (A) (A) (A) (A) (A) (A) (A) (A) (A)
                 (A) (A) (A) (A) (A) (A) (A) (A) (A) (A) (A) (A)
                 (A) (A) (A) (A) (A) (A) (A) (A) (A) (A) (A) (A)
                 (A) (A) (A) (A) (A) (A) (A) (A) (A) (A) (A) (A)
                 (A) (A) (A) (A) (A) (A) (A) (A) (A) (A) (A) (A)
                 (A) (A) (A) (A) (A) (A) (A) (A) (A) (A) (A) (A)
                 (A) (A) (A) (A) (A) (A) (A) (A) (A) (A) (A) (A)
                 (A) (A) (A) (A) (A) (A) (A) (A) (A) (A) (A) (A)
                 (A) (A) (A) (A) (A) (A) (A) (A) (A) (A) (A) (A)
                 (A) (A) (A) (A) (A) (A) (A) (A) (A) (A) (A) (A)
                 (A) (A) (A) (A) (A) (A) (A) (A) (A) (A) (A) (A)
                 (A) (A) (A) (A) (A) (A) (A) (A) (A) (A) (A) (A)
                 (A) (A)
 The electronic state is 1-A.
 Alpha  occ. eigenvalues --  -20.61469 -20.54857 -15.55502 -11.38672 -11.27720
 Alpha  occ. eigenvalues --   -1.47183  -1.36652  -1.19990  -0.97877  -0.82914
 Alpha  occ. eigenvalues --   -0.71736  -0.69108  -0.67156  -0.65035  -0.60189
 Alpha  occ. eigenvalues --   -0.58575  -0.55964  -0.49016  -0.46069  -0.40803
 Alpha virt. eigenvalues --    0.08360   0.10396   0.12213   0.12737   0.15327
 Alpha virt. eigenvalues --    0.17598   0.18326   0.20943   0.22831   0.25147
 Alpha virt. eigenvalues --    0.25536   0.27360   0.29617   0.32471   0.32885
 Alpha virt. eigenvalues --    0.36770   0.37419   0.38694   0.40282   0.40799
 Alpha virt. eigenvalues --    0.41087   0.41825   0.43963   0.45759   0.46162
 Alpha virt. eigenvalues --    0.47210   0.49760   0.50325   0.53347   0.55250
 Alpha virt. eigenvalues --    0.56578   0.57128   0.60274   0.62533   0.63712
 Alpha virt. eigenvalues --    0.65163   0.66748   0.70373   0.71217   0.72262
 Alpha virt. eigenvalues --    0.75064   0.76437   0.78840   0.78933   0.81189
 Alpha virt. eigenvalues --    0.82735   0.83246   0.84568   0.85279   0.86729
 Alpha virt. eigenvalues --    0.89182   0.90634   0.92977   0.94503   0.95464
 Alpha virt. eigenvalues --    0.97459   0.98698   1.00605   1.02744   1.03330
 Alpha virt. eigenvalues --    1.04771   1.05175   1.08997   1.10399   1.11384
 Alpha virt. eigenvalues --    1.12118   1.13779   1.16745   1.18108   1.20199
 Alpha virt. eigenvalues --    1.20570   1.24452   1.25808   1.28088   1.29581
 Alpha virt. eigenvalues --    1.30459   1.31854   1.38059   1.39562   1.41253
 Alpha virt. eigenvalues --    1.42704   1.45810   1.46675   1.48186   1.49693
 Alpha virt. eigenvalues --    1.53142   1.54706   1.56519   1.58657   1.61201
 Alpha virt. eigenvalues --    1.62877   1.63183   1.64610   1.66502   1.67979
 Alpha virt. eigenvalues --    1.70725   1.73183   1.75094   1.75273   1.77560
 Alpha virt. eigenvalues --    1.80270   1.82050   1.84712   1.87274   1.89296
 Alpha virt. eigenvalues --    1.89943   1.90538   1.91226   1.92278   1.95108
 Alpha virt. eigenvalues --    1.98098   2.00024   2.00722   2.02681   2.04804
 Alpha virt. eigenvalues --    2.05357   2.06448   2.08275   2.09819   2.11071
 Alpha virt. eigenvalues --    2.12103   2.13608   2.14714   2.16930   2.18006
 Alpha virt. eigenvalues --    2.19029   2.23395   2.24175   2.26236   2.29048
 Alpha virt. eigenvalues --    2.30467   2.31445   2.32426   2.34731   2.35227
 Alpha virt. eigenvalues --    2.37189   2.38308   2.41804   2.43940   2.44949
 Alpha virt. eigenvalues --    2.46817   2.49078   2.50706   2.55376   2.55962
 Alpha virt. eigenvalues --    2.59076   2.61719   2.63433   2.63971   2.66986
 Alpha virt. eigenvalues --    2.68811   2.72672   2.74289   2.76003   2.80429
 Alpha virt. eigenvalues --    2.81404   2.84494   2.85742   2.87631   2.89321
 Alpha virt. eigenvalues --    2.92547   2.93947   2.95478   2.97637   2.99702
 Alpha virt. eigenvalues --    3.01351   3.02121   3.06609   3.10273   3.12400
 Alpha virt. eigenvalues --    3.13016   3.16991   3.18756   3.19132   3.21036
 Alpha virt. eigenvalues --    3.23742   3.25363   3.28155   3.29704   3.33940
 Alpha virt. eigenvalues --    3.36114   3.37579   3.38249   3.41971   3.44328
 Alpha virt. eigenvalues --    3.46048   3.47750   3.52234   3.54245   3.58118
 Alpha virt. eigenvalues --    3.59109   3.60691   3.61925   3.65774   3.68832
 Alpha virt. eigenvalues --    3.70118   3.72837   3.75748   3.77772   3.79426
 Alpha virt. eigenvalues --    3.80811   3.84191   3.86639   3.88066   3.90738
 Alpha virt. eigenvalues --    3.92256   3.96708   3.97654   3.98837   4.03308
 Alpha virt. eigenvalues --    4.05931   4.07964   4.09033   4.09219   4.12049
 Alpha virt. eigenvalues --    4.14948   4.15602   4.18294   4.20159   4.21697
 Alpha virt. eigenvalues --    4.25341   4.28584   4.28676   4.30574   4.31885
 Alpha virt. eigenvalues --    4.36302   4.37126   4.38676   4.41993   4.44679
 Alpha virt. eigenvalues --    4.48958   4.50958   4.51564   4.53959   4.55660
 Alpha virt. eigenvalues --    4.58079   4.60323   4.60557   4.64300   4.64461
 Alpha virt. eigenvalues --    4.66119   4.67236   4.71259   4.72551   4.73951
 Alpha virt. eigenvalues --    4.75846   4.79931   4.82551   4.83224   4.84418
 Alpha virt. eigenvalues --    4.86979   4.89625   4.90569   4.93648   4.93748
 Alpha virt. eigenvalues --    4.96624   4.99112   5.01306   5.03813   5.05974
 Alpha virt. eigenvalues --    5.08231   5.10073   5.14115   5.14268   5.17111
 Alpha virt. eigenvalues --    5.18356   5.21219   5.23587   5.23814   5.25879
 Alpha virt. eigenvalues --    5.28840   5.30738   5.31753   5.33795   5.35746
 Alpha virt. eigenvalues --    5.38244   5.40794   5.43499   5.45189   5.47318
 Alpha virt. eigenvalues --    5.50509   5.53069   5.55025   5.57430   5.58749
 Alpha virt. eigenvalues --    5.64676   5.67762   5.68827   5.69379   5.71476
 Alpha virt. eigenvalues --    5.72901   5.75983   5.82341   5.84715   5.87193
 Alpha virt. eigenvalues --    5.89547   5.90400   5.92250   5.96018   5.99309
 Alpha virt. eigenvalues --    6.03993   6.04759   6.05254   6.11466   6.11657
 Alpha virt. eigenvalues --    6.14122   6.15693   6.19128   6.21659   6.23263
 Alpha virt. eigenvalues --    6.27069   6.28292   6.32828   6.35550   6.39547
 Alpha virt. eigenvalues --    6.42512   6.45692   6.52114   6.53539   6.54424
 Alpha virt. eigenvalues --    6.59920   6.61403   6.66519   6.69408   6.72384
 Alpha virt. eigenvalues --    6.74129   6.76675   6.79815   6.81954   6.82858
 Alpha virt. eigenvalues --    6.83355   6.88301   6.93848   6.96197   7.00843
 Alpha virt. eigenvalues --    7.02294   7.04675   7.08345   7.12109   7.15044
 Alpha virt. eigenvalues --    7.18526   7.20577   7.24092   7.25866   7.27702
 Alpha virt. eigenvalues --    7.30951   7.34353   7.36942   7.37767   7.40904
 Alpha virt. eigenvalues --    7.42639   7.43948   7.48185   7.51382   7.54596
 Alpha virt. eigenvalues --    7.57122   7.59720   7.65159   7.68493   7.69734
 Alpha virt. eigenvalues --    7.72535   7.75433   7.77773   7.80932   7.84812
 Alpha virt. eigenvalues --    7.86814   7.87582   7.92350   7.96013   7.97933
 Alpha virt. eigenvalues --    8.01319   8.09612   8.10723   8.15498   8.18190
 Alpha virt. eigenvalues --    8.23498   8.28869   8.31581   8.37151   8.37512
 Alpha virt. eigenvalues --    8.45040   8.48623   8.53706   8.62146   8.65012
 Alpha virt. eigenvalues --    8.69282   8.72593   8.74216   8.77255   8.82575
 Alpha virt. eigenvalues --    8.89775   8.94636   8.96548   9.02487   9.08201
 Alpha virt. eigenvalues --    9.09440   9.13684   9.16318   9.25782   9.30909
 Alpha virt. eigenvalues --    9.33623   9.44490   9.47827   9.52757   9.56901
 Alpha virt. eigenvalues --    9.60810   9.61873   9.65838   9.70890   9.74944
 Alpha virt. eigenvalues --    9.81938   9.83822   9.86383   9.89488   9.95485
 Alpha virt. eigenvalues --   10.02847  10.07091  10.13291  10.19444  10.25924
 Alpha virt. eigenvalues --   10.28902  10.32135  10.35286  10.40697  10.43190
 Alpha virt. eigenvalues --   10.46056  10.51393  10.54539  10.59916  10.62912
 Alpha virt. eigenvalues --   10.66065  10.76122  10.79481  10.80843  10.85137
 Alpha virt. eigenvalues --   10.88963  10.92308  10.95092  10.97575  10.99107
 Alpha virt. eigenvalues --   11.06301  11.13195  11.17867  11.22123  11.29865
 Alpha virt. eigenvalues --   11.30508  11.41688  11.42469  11.46066  11.49734
 Alpha virt. eigenvalues --   11.53506  11.57355  11.58736  11.67528  11.68573
 Alpha virt. eigenvalues --   11.71267  11.74346  11.77860  11.81979  11.89228
 Alpha virt. eigenvalues --   11.89608  11.98786  12.06758  12.07161  12.19371
 Alpha virt. eigenvalues --   12.26158  12.29648  12.36920  12.42193  12.47772
 Alpha virt. eigenvalues --   12.49019  12.50107  12.54066  12.60008  12.68599
 Alpha virt. eigenvalues --   12.70101  12.70857  12.72086  12.72549  12.75707
 Alpha virt. eigenvalues --   12.77868  12.79544  12.80343  12.80859  12.82078
 Alpha virt. eigenvalues --   12.85048  12.85653  12.86488  12.90389  12.92684
 Alpha virt. eigenvalues --   12.94145  12.97385  12.98155  12.99427  13.01884
 Alpha virt. eigenvalues --   13.03364  13.06681  13.09065  13.12310  13.13240
 Alpha virt. eigenvalues --   13.16891  13.18744  13.21422  13.23812  13.28427
 Alpha virt. eigenvalues --   13.29558  13.33405  13.35303  13.41713  13.44612
 Alpha virt. eigenvalues --   13.50362  13.50456  13.56026  13.56668  13.58031
 Alpha virt. eigenvalues --   13.64757  13.66353  13.70083  13.70615  13.71842
 Alpha virt. eigenvalues --   13.73901  13.76088  13.77963  13.81983  13.84918
 Alpha virt. eigenvalues --   13.85595  13.87923  13.89825  13.91145  13.92875
 Alpha virt. eigenvalues --   13.94975  13.98962  14.03907  14.06287  14.10296
 Alpha virt. eigenvalues --   14.12478  14.14522  14.17270  14.19488  14.21115
 Alpha virt. eigenvalues --   14.21929  14.26056  14.27602  14.28794  14.29338
 Alpha virt. eigenvalues --   14.30490  14.32849  14.34025  14.37388  14.38488
 Alpha virt. eigenvalues --   14.40612  14.42011  14.43113  14.46145  14.49094
 Alpha virt. eigenvalues --   14.51730  14.52728  14.58798  14.63704  14.64500
 Alpha virt. eigenvalues --   14.66403  14.69490  14.72345  14.74467  14.78514
 Alpha virt. eigenvalues --   14.80691  14.85879  14.88793  14.91860  14.94628
 Alpha virt. eigenvalues --   14.99711  15.02014  15.06120  15.08482  15.13386
 Alpha virt. eigenvalues --   15.15520  15.16870  15.21691  15.32514  15.33895
 Alpha virt. eigenvalues --   15.34344  15.37979  15.43322  15.50795  15.53127
 Alpha virt. eigenvalues --   15.58593  15.63160  15.65777  15.69274  15.78176
 Alpha virt. eigenvalues --   15.80607  15.93513  15.95914  16.00051  16.01604
 Alpha virt. eigenvalues --   16.04431  16.07075  16.17729  16.22373  16.23821
 Alpha virt. eigenvalues --   16.30321  16.31663  16.38423  16.40076  16.46628
 Alpha virt. eigenvalues --   16.49961  16.66786  16.71551  16.73915  16.74193
 Alpha virt. eigenvalues --   16.79582  16.81597  16.82543  16.88137  16.90746
 Alpha virt. eigenvalues --   16.92052  16.92666  17.05405  17.06767  17.09107
 Alpha virt. eigenvalues --   17.17445  17.31114  17.38474  17.47247  17.49767
 Alpha virt. eigenvalues --   17.56940  17.63877  17.70327  17.75891  17.80822
 Alpha virt. eigenvalues --   17.85487  17.91109  17.92651  17.94664  17.96896
 Alpha virt. eigenvalues --   18.01696  18.11069  18.15490  18.29015  18.33490
 Alpha virt. eigenvalues --   18.35270  18.39795  18.44270  18.53174  18.58332
 Alpha virt. eigenvalues --   18.59495  18.72520  18.76344  18.78691  18.86795
 Alpha virt. eigenvalues --   18.87852  18.88403  18.98000  19.00486  19.05890
 Alpha virt. eigenvalues --   19.09339  19.12521  19.17380  19.22019  19.26393
 Alpha virt. eigenvalues --   19.32117  19.39955  19.48165  19.51716  19.54720
 Alpha virt. eigenvalues --   19.55324  19.59114  19.76868  19.78164  19.81837
 Alpha virt. eigenvalues --   19.88928  19.93112  20.04675  20.22738  20.32584
 Alpha virt. eigenvalues --   20.43998  20.72212  20.85930  20.95235  20.99434
 Alpha virt. eigenvalues --   21.02299  21.09929  21.10971  21.27577  21.31008
 Alpha virt. eigenvalues --   21.45313  21.63860  21.76692  22.12775  22.30189
 Alpha virt. eigenvalues --   22.37658  22.48809  22.73293  23.03951  23.11007
 Alpha virt. eigenvalues --   23.19880  23.47997  23.50038  23.69785  23.80883
 Alpha virt. eigenvalues --   23.83865  24.18475  24.23610  25.62672  26.08260
 Alpha virt. eigenvalues --   40.74578  42.46725  53.64998  64.19753  65.17157
          Condensed to atoms (all electrons):
               1          2          3          4          5          6
     1  C    4.039625   0.415535   0.675256  -0.032853   0.418154  -0.022089
     2  O    0.415535   7.905816  -0.086487   0.312044  -0.065043  -0.010695
     3  O    0.675256  -0.086487   7.965787   0.009091  -0.051075   0.003496
     4  H   -0.032853   0.312044   0.009091   0.359276   0.009511  -0.000204
     5  C    0.418154  -0.065043  -0.051075   0.009511   4.464602   0.348094
     6  N   -0.022089  -0.010695   0.003496  -0.000204   0.348094   6.485134
     7  H   -0.044603  -0.003263   0.000276  -0.001123   0.417116  -0.152295
     8  H   -0.013330   0.003294  -0.007874  -0.000307   0.414588  -0.012650
     9  H    0.003858   0.000264  -0.000433   0.000120  -0.025837   0.430772
    10  H   -0.008821   0.004631   0.000217  -0.000536  -0.024359   0.426990
               7          8          9         10
     1  C   -0.044603  -0.013330   0.003858  -0.008821
     2  O   -0.003263   0.003294   0.000264   0.004631
     3  O    0.000276  -0.007874  -0.000433   0.000217
     4  H   -0.001123  -0.000307   0.000120  -0.000536
     5  C    0.417116   0.414588  -0.025837  -0.024359
     6  N   -0.152295  -0.012650   0.430772   0.426990
     7  H    0.873459  -0.080993  -0.001703   0.001709
     8  H   -0.080993   0.639134  -0.006638   0.004698
     9  H   -0.001703  -0.006638   0.434912  -0.036733
    10  H    0.001709   0.004698  -0.036733   0.412720
 Mulliken charges:
               1
     1  C    0.569268
     2  O   -0.476095
     3  O   -0.508255
     4  H    0.344982
     5  C    0.094251
     6  N   -0.496554
     7  H   -0.008578
     8  H    0.060077
     9  H    0.201419
    10  H    0.219485
 Sum of Mulliken charges =  -0.00000
 Mulliken charges with hydrogens summed into heavy atoms:
               1
     1  C    0.569268
     2  O   -0.131113
     3  O   -0.508255
     5  C    0.145750
     6  N   -0.075649
 Electronic spatial extent (au):  <R**2>=            410.0806
 Charge=             -0.0000 electrons
 Dipole moment (field-independent basis, Debye):
    X=             -1.9042    Y=              1.1176    Z=              1.6032  Tot=              2.7286
 Quadrupole moment (field-independent basis, Debye-Ang):
   XX=            -28.4678   YY=            -28.6174   ZZ=            -31.0221
   XY=              6.1958   XZ=             -1.9481   YZ=             -0.2826
 Traceless Quadrupole moment (field-independent basis, Debye-Ang):
   XX=              0.9013   YY=              0.7517   ZZ=             -1.6530
   XY=              6.1958   XZ=             -1.9481   YZ=             -0.2826
 Octapole moment (field-independent basis, Debye-Ang**2):
  XXX=            -11.5705  YYY=              6.8461  ZZZ=              2.6355  XYY=              0.5608
  XXY=             11.5470  XXZ=              4.8203  XZZ=              4.3278  YZZ=             -0.0603
  YYZ=             -0.5320  XYZ=             -1.9979
 Hexadecapole moment (field-independent basis, Debye-Ang**3):
 XXXX=           -280.0043 YYYY=           -130.0660 ZZZZ=            -43.9331 XXXY=             24.6639
 XXXZ=             -5.1026 YYYX=             10.9977 YYYZ=              1.5223 ZZZX=             -5.0671
 ZZZY=              0.4356 XXYY=            -63.4380 XXZZ=            -66.3727 YYZZ=            -31.0323
 XXYZ=              0.5808 YYXZ=             -0.7897 ZZXY=              1.6044
 N-N= 1.805919118644D+02 E-N=-1.027676143103D+03  KE= 2.826815077263D+02
 No NMR shielding tensors so no spin-rotation constants.
 Leave Link  601 at Sat Oct 15 17:15:18 2016, MaxMem= 13421772800 cpu:        30.4
 (Enter /share/pub/jeff/software/g09/g09/l9999.exe)
 1\1\GINC-R01N18\SP\RHF\CC-pV5Z\C2H5N1O2\JIANGZHONGMING\15-Oct-2016\0\\
 #P HF cc-pV5Z\\start best geom PCCP paper\\0,1\C\O,1,1.3486\O,1,1.2023
 9,2,122.85413\H,2,0.965152,1,106.77622,3,0.858776,0\C,1,1.50625,3,125.
 06726,2,-176.8326,0\N,5,1.45443,1,111.81084,3,-146.04703,0\H,5,1.09773
 ,1,105.69489,3,88.80239,0\H,5,1.08654,1,106.9966,3,-25.78313,0\H,6,1.0
 0989,5,110.58167,1,-178.47161,0\H,6,1.01063,5,111.13985,1,-58.48891,0\
 \Version=ES64L-G09RevE.01\State=1-A\HF=-282.9702591\RMSD=3.422e-09\Dip
 ole=-0.8356124,-0.4800233,0.4729956\Quadrupole=1.0743552,-1.6746599,0.
 6003047,1.3904484,4.5035523,-0.3493763\PG=C01 [X(C2H5N1O2)]\\@


 In the beginning the Universe was created.
 This has made a lot of people very angry
 and been widely regarded as a bad move.
                               -D.Adams
 Job cpu time:       0 days  6 hours  0 minutes 25.3 seconds.
 File lengths (MBytes):  RWF=    592 Int=      0 D2E=      0 Chk=     32 Scr=      8
 Normal termination of Gaussian 09 at Sat Oct 15 17:15:18 2016.
