 Entering Gaussian System, Link 0=g09
 Initial command:
 /share/pub/jeff/software/g09/g09/l1.exe "/share/home/jiangzhongming/tmp/Gau-52222.inp" -scrdir="/share/home/jiangzhongming/tmp/"
 Entering Link 1 = /share/pub/jeff/software/g09/g09/l1.exe PID=     52223.
  
 Copyright (c) 1988,1990,1992,1993,1995,1998,2003,2009,2015,
            Gaussian, Inc.  All Rights Reserved.
  
 This is part of the Gaussian(R) 09 program.  It is based on
 the Gaussian(R) 03 system (copyright 2003, Gaussian, Inc.),
 the Gaussian(R) 98 system (copyright 1998, Gaussian, Inc.),
 the Gaussian(R) 94 system (copyright 1995, Gaussian, Inc.),
 the Gaussian 92(TM) system (copyright 1992, Gaussian, Inc.),
 the Gaussian 90(TM) system (copyright 1990, Gaussian, Inc.),
 the Gaussian 88(TM) system (copyright 1988, Gaussian, Inc.),
 the Gaussian 86(TM) system (copyright 1986, Carnegie Mellon
 University), and the Gaussian 82(TM) system (copyright 1983,
 Carnegie Mellon University). Gaussian is a federally registered
 trademark of Gaussian, Inc.
  
 This software contains proprietary and confidential information,
 including trade secrets, belonging to Gaussian, Inc.
  
 This software is provided under written license and may be
 used, copied, transmitted, or stored only in accord with that
 written license.
  
 The following legend is applicable only to US Government
 contracts under FAR:
  
                    RESTRICTED RIGHTS LEGEND
  
 Use, reproduction and disclosure by the US Government is
 subject to restrictions as set forth in subparagraphs (a)
 and (c) of the Commercial Computer Software - Restricted
 Rights clause in FAR 52.227-19.
  
 Gaussian, Inc.
 340 Quinnipiac St., Bldg. 40, Wallingford CT 06492
  
  
 ---------------------------------------------------------------
 Warning -- This program may not be used in any manner that
 competes with the business of Gaussian, Inc. or will provide
 assistance to any competitor of Gaussian, Inc.  The licensee
 of this program is prohibited from giving any competitor of
 Gaussian, Inc. access to this program.  By using this program,
 the user acknowledges that Gaussian, Inc. is engaged in the
 business of creating and licensing software in the field of
 computational chemistry and represents and warrants to the
 licensee that it is not a competitor of Gaussian, Inc. and that
 it will not use this program in any manner prohibited above.
 ---------------------------------------------------------------
  

 Cite this work as:
 Gaussian 09, Revision E.01,
 M. J. Frisch, G. W. Trucks, H. B. Schlegel, G. E. Scuseria, 
 M. A. Robb, J. R. Cheeseman, G. Scalmani, V. Barone, B. Mennucci, 
 G. A. Petersson, H. Nakatsuji, M. Caricato, X. Li, H. P. Hratchian, 
 A. F. Izmaylov, J. Bloino, G. Zheng, J. L. Sonnenberg, M. Hada, 
 M. Ehara, K. Toyota, R. Fukuda, J. Hasegawa, M. Ishida, T. Nakajima, 
 Y. Honda, O. Kitao, H. Nakai, T. Vreven, J. A. Montgomery, Jr., 
 J. E. Peralta, F. Ogliaro, M. Bearpark, J. J. Heyd, E. Brothers, 
 K. N. Kudin, V. N. Staroverov, T. Keith, R. Kobayashi, J. Normand, 
 K. Raghavachari, A. Rendell, J. C. Burant, S. S. Iyengar, J. Tomasi, 
 M. Cossi, N. Rega, J. M. Millam, M. Klene, J. E. Knox, J. B. Cross, 
 V. Bakken, C. Adamo, J. Jaramillo, R. Gomperts, R. E. Stratmann, 
 O. Yazyev, A. J. Austin, R. Cammi, C. Pomelli, J. W. Ochterski, 
 R. L. Martin, K. Morokuma, V. G. Zakrzewski, G. A. Voth, 
 P. Salvador, J. J. Dannenberg, S. Dapprich, A. D. Daniels, 
 O. Farkas, J. B. Foresman, J. V. Ortiz, J. Cioslowski, 
 and D. J. Fox, Gaussian, Inc., Wallingford CT, 2013.
 
 ******************************************
 Gaussian 09:  ES64L-G09RevE.01 30-Nov-2015
                15-Oct-2016 
 ******************************************
 %chk=ttt_Best_geom_HF_V5Z.chk
 %nprocshared=32
 Will use up to   32 processors via shared memory.
 %mem=100GB
 -------------
 #P HF cc-pV5Z
 -------------
 1/38=1/1;
 2/12=2,17=6,18=5,40=1/2;
 3/5=16,6=3,11=9,16=1,25=1,30=1/1,2,3;
 4//1;
 5/5=2,38=5/2;
 6/7=2,8=2,9=2,10=2,28=1/1;
 99/5=1,9=1/99;
 Leave Link    1 at Sat Oct 15 18:41:44 2016, MaxMem= 13421772800 cpu:         5.7
 (Enter /share/pub/jeff/software/g09/g09/l101.exe)
 --------------------------
 start best geom PCCP paper
 --------------------------
 Symbolic Z-matrix:
 Charge =  0 Multiplicity = 1
 C
 O                    1    B1
 O                    1    B2       2    A1
 H                    2    B3       1    A2       3    D1       0
 C                    1    B4       3    A3       2    D2       0
 N                    5    B5       1    A4       3    D3       0
 H                    5    B6       1    A5       3    D4       0
 H                    5    B6       1    A5       3    D4m      0
 H                    6    B8       5    A7       1    D6       0
 H                    6    B8       5    A7       1    D6m      0
       Variables:
  B1                    1.3486                   
  B2                    1.2025                   
  A1                  123.0718                   
  B3                    0.9651                   
  A2                  107.1011                   
  B4                    1.5141                   
  A3                  125.77                     
  B5                    1.442                    
  A4                  115.3802                   
  B6                    1.0905                   
  A5                  107.3709                   
  D4                 -123.1312                   
  D4m                 123.1312                   
  B8                    1.0109                   
  A7                  110.5508                   
  D6                  -58.6741                   
  D6m                  58.6741                   
  D1                    0.                       
  D2                  180.                       
  D3                    0.                       
 
 NAtoms=     10 NQM=       10 NQMF=       0 NMMI=      0 NMMIF=      0
                NMic=       0 NMicF=      0.
                    Isotopes and Nuclear Properties:
 (Nuclear quadrupole moments (NQMom) in fm**2, nuclear magnetic moments (NMagM)
  in nuclear magnetons)

  Atom         1           2           3           4           5           6           7           8           9          10
 IAtWgt=          12          16          16           1          12          14           1           1           1           1
 AtmWgt=  12.0000000  15.9949146  15.9949146   1.0078250  12.0000000  14.0030740   1.0078250   1.0078250   1.0078250   1.0078250
 NucSpn=           0           0           0           1           0           2           1           1           1           1
 AtZEff=   0.0000000   0.0000000   0.0000000   0.0000000   0.0000000   0.0000000   0.0000000   0.0000000   0.0000000   0.0000000
 NQMom=    0.0000000   0.0000000   0.0000000   0.0000000   0.0000000   2.0440000   0.0000000   0.0000000   0.0000000   0.0000000
 NMagM=    0.0000000   0.0000000   0.0000000   2.7928460   0.0000000   0.4037610   2.7928460   2.7928460   2.7928460   2.7928460
 AtZNuc=   6.0000000   8.0000000   8.0000000   1.0000000   6.0000000   7.0000000   1.0000000   1.0000000   1.0000000   1.0000000
 Leave Link  101 at Sat Oct 15 18:41:44 2016, MaxMem= 13421772800 cpu:         2.4
 (Enter /share/pub/jeff/software/g09/g09/l202.exe)
                          Input orientation:                          
 ---------------------------------------------------------------------
 Center     Atomic      Atomic             Coordinates (Angstroms)
 Number     Number       Type             X           Y           Z
 ---------------------------------------------------------------------
      1          6           0        0.000000    0.000000    0.000000
      2          8           0        0.000000    0.000000    1.348600
      3          8           0        1.007680    0.000000   -0.656192
      4          1           0        0.922430    0.000000    1.632396
      5          6           0       -1.412031    0.000000   -0.546506
      6          7           0       -1.518192    0.000000   -1.984593
      7          1           0       -1.920977    0.871558   -0.133529
      8          1           0       -1.920977   -0.871558   -0.133529
      9          1           0       -1.053528    0.808581   -2.374724
     10          1           0       -1.053528   -0.808581   -2.374724
 ---------------------------------------------------------------------
                    Distance matrix (angstroms):
                    1          2          3          4          5
     1  C    0.000000
     2  O    1.348600   0.000000
     3  O    1.202500   2.243793   0.000000
     4  H    1.874992   0.965100   2.290175   0.000000
     5  C    1.514100   2.363315   2.422195   3.193324   0.000000
     6  N    2.498703   3.662660   2.853888   4.363398   1.442000
     7  H    2.113669   2.578075   3.099971   3.458767   1.090500
     8  H    2.113669   2.578075   3.099971   3.458767   1.090500
     9  H    2.720853   3.953083   2.802808   4.540399   2.030938
    10  H    2.720853   3.953083   2.802808   4.540399   2.030938
                    6          7          8          9         10
     6  N    0.000000
     7  H    2.085254   0.000000
     8  H    2.085254   1.743117   0.000000
     9  H    1.010900   2.404037   2.932285   0.000000
    10  H    1.010900   2.932285   2.404037   1.617161   0.000000
 Stoichiometry    C2H5NO2
 Framework group  CS[SG(C2HNO2),X(H4)]
 Deg. of freedom    15
 Full point group                 CS      NOp   2
 Largest Abelian subgroup         CS      NOp   2
 Largest concise Abelian subgroup CS      NOp   2
                         Standard orientation:                         
 ---------------------------------------------------------------------
 Center     Atomic      Atomic             Coordinates (Angstroms)
 Number     Number       Type             X           Y           Z
 ---------------------------------------------------------------------
      1          6           0        0.000000    0.549747    0.000000
      2          8           0        0.985218    1.470653    0.000000
      3          8           0       -1.167485    0.837818    0.000000
      4          1           0        0.562653    2.338326    0.000000
      5          6           0        0.564972   -0.854997    0.000000
      6          7           0       -0.413127   -1.914567    0.000000
      7          1           0        1.214211   -0.944801    0.871558
      8          1           0        1.214211   -0.944801   -0.871558
      9          1           0       -1.015438   -1.841513    0.808581
     10          1           0       -1.015438   -1.841513   -0.808581
 ---------------------------------------------------------------------
 Rotational constants (GHZ):     10.3961957      3.9010533      2.9303554
 Leave Link  202 at Sat Oct 15 18:41:44 2016, MaxMem= 13421772800 cpu:         2.4
 (Enter /share/pub/jeff/software/g09/g09/l301.exe)
 Standard basis: CC-pV5Z (5D, 7F)
 Ernie: Thresh=  0.10000D-02 Tol=  0.10000D-05 Strict=F.
 Ernie:  20 primitive shells out of 300 were deleted.
 There are   586 symmetry adapted cartesian basis functions of A'  symmetry.
 There are   394 symmetry adapted cartesian basis functions of A"  symmetry.
 There are   425 symmetry adapted basis functions of A'  symmetry.
 There are   305 symmetry adapted basis functions of A"  symmetry.
   730 basis functions,  1110 primitive gaussians,   980 cartesian basis functions
    20 alpha electrons       20 beta electrons
       nuclear repulsion energy       179.7404034807 Hartrees.
 IExCor=    0 DFT=F Ex=HF Corr=None ExCW=0 ScaHFX=  1.000000
 ScaDFX=  1.000000  1.000000  1.000000  1.000000 ScalE2=  1.000000  1.000000
 IRadAn=      0 IRanWt=     -1 IRanGd=            0 ICorTp=0 IEmpDi=  4
 NAtoms=   10 NActive=   10 NUniq=    8 SFac= 1.56D+00 NAtFMM=   60 NAOKFM=F Big=F
 Integral buffers will be    131072 words long.
 Raffenetti 1 integral format.
 Two-electron integral symmetry is turned on.
 Leave Link  301 at Sat Oct 15 18:41:45 2016, MaxMem= 13421772800 cpu:         4.0
 (Enter /share/pub/jeff/software/g09/g09/l302.exe)
 NPDir=0 NMtPBC=     1 NCelOv=     1 NCel=       1 NClECP=     1 NCelD=      1
         NCelK=      1 NCelE2=     1 NClLst=     1 CellRange=     0.0.
 One-electron integrals computed using PRISM.
 One-electron integral symmetry used in STVInt
 NBasis=   730 RedAO= T EigKep=  1.85D-05  NBF=   425   305
 NBsUse=   730 1.00D-06 EigRej= -1.00D+00 NBFU=   425   305
 Leave Link  302 at Sat Oct 15 18:41:45 2016, MaxMem= 13421772800 cpu:        20.6
 (Enter /share/pub/jeff/software/g09/g09/l303.exe)
 DipDrv:  MaxL=1.
 Leave Link  303 at Sat Oct 15 18:41:46 2016, MaxMem= 13421772800 cpu:         9.1
 (Enter /share/pub/jeff/software/g09/g09/l401.exe)
 ExpMin= 7.28D-02 ExpMax= 1.64D+05 ExpMxC= 5.16D+02 IAcc=2 IRadAn=         4 AccDes= 0.00D+00
 Harris functional with IExCor=  205 and IRadAn=       4 diagonalized for initial guess.
 HarFok:  IExCor=  205 AccDes= 0.00D+00 IRadAn=         4 IDoV= 1 UseB2=F ITyADJ=14
 ICtDFT=  3500011 ScaDFX=  1.000000  1.000000  1.000000  1.000000
 FoFCou: FMM=F IPFlag=           0 FMFlag=      100000 FMFlg1=           0
         NFxFlg=           0 DoJE=T BraDBF=F KetDBF=T FulRan=T
         wScrn=  0.000000 ICntrl=     500 IOpCl=  0 I1Cent=   200000004 NGrid=           0
         NMat0=    1 NMatS0=      1 NMatT0=    0 NMatD0=    1 NMtDS0=    0 NMtDT0=    0
 Petite list used in FoFCou.
 Harris En= -283.258363325597    
 JPrj=0 DoOrth=F DoCkMO=F.
 Initial guess orbital symmetries:
       Occupied  (A') (A') (A') (A') (A') (A') (A') (A') (A') (A')
                 (A") (A') (A') (A') (A") (A') (A") (A") (A') (A')
       Virtual   (A") (A') (A') (A') (A") (A") (A') (A') (A') (A')
                 (A') (A") (A") (A') (A') (A") (A') (A') (A") (A')
                 (A') (A') (A") (A') (A') (A") (A') (A') (A") (A')
                 (A') (A") (A') (A") (A') (A') (A") (A') (A') (A")
                 (A") (A') (A") (A') (A") (A') (A') (A") (A") (A')
                 (A') (A') (A') (A") (A') (A') (A') (A') (A") (A")
                 (A') (A") (A') (A') (A") (A') (A') (A") (A') (A')
                 (A') (A') (A") (A") (A') (A') (A") (A") (A') (A')
                 (A") (A") (A') (A') (A") (A') (A") (A') (A") (A')
                 (A') (A') (A") (A') (A") (A') (A') (A") (A") (A')
                 (A") (A') (A") (A") (A') (A') (A") (A') (A") (A')
                 (A") (A') (A") (A') (A') (A') (A") (A') (A') (A")
                 (A') (A") (A") (A') (A") (A') (A") (A') (A') (A")
                 (A') (A') (A') (A") (A') (A') (A') (A") (A") (A')
                 (A") (A') (A') (A") (A') (A") (A') (A') (A') (A")
                 (A') (A') (A") (A') (A') (A") (A') (A") (A') (A")
                 (A') (A") (A') (A') (A") (A') (A") (A') (A') (A")
                 (A') (A") (A") (A') (A") (A') (A') (A') (A') (A")
                 (A') (A") (A') (A") (A") (A') (A') (A") (A') (A')
                 (A') (A") (A") (A') (A") (A') (A") (A') (A') (A")
                 (A") (A') (A") (A') (A') (A") (A') (A') (A") (A')
                 (A") (A') (A") (A') (A") (A") (A') (A') (A') (A")
                 (A') (A') (A') (A") (A') (A") (A') (A") (A') (A")
                 (A') (A') (A") (A') (A") (A') (A") (A") (A') (A')
                 (A') (A") (A") (A') (A') (A") (A") (A') (A") (A')
                 (A') (A") (A') (A") (A') (A") (A') (A') (A") (A")
                 (A') (A') (A") (A") (A') (A") (A') (A') (A") (A')
                 (A') (A") (A") (A') (A') (A") (A") (A') (A") (A')
                 (A") (A') (A") (A') (A") (A') (A") (A') (A') (A")
                 (A') (A") (A') (A') (A') (A") (A') (A') (A") (A')
                 (A') (A") (A") (A') (A') (A') (A") (A") (A') (A')
                 (A") (A") (A') (A') (A") (A') (A') (A') (A") (A')
                 (A') (A") (A') (A") (A') (A") (A') (A") (A') (A')
                 (A') (A') (A") (A') (A") (A') (A') (A") (A') (A")
                 (A") (A") (A') (A') (A") (A') (A') (A") (A') (A")
                 (A') (A') (A") (A') (A") (A") (A') (A") (A') (A")
                 (A') (A") (A") (A') (A') (A') (A") (A') (A") (A")
                 (A') (A') (A') (A") (A") (A') (A') (A") (A') (A")
                 (A') (A') (A') (A") (A') (A') (A") (A') (A") (A')
                 (A') (A") (A') (A") (A") (A') (A") (A') (A") (A')
                 (A') (A") (A') (A") (A') (A") (A') (A") (A") (A')
                 (A') (A") (A') (A") (A') (A') (A') (A") (A') (A")
                 (A') (A') (A') (A') (A') (A") (A") (A') (A") (A')
                 (A") (A') (A") (A') (A') (A") (A') (A') (A") (A')
                 (A") (A") (A') (A') (A") (A") (A') (A') (A") (A')
                 (A') (A") (A") (A') (A') (A") (A') (A") (A') (A")
                 (A') (A') (A") (A') (A') (A') (A") (A') (A") (A")
                 (A") (A') (A') (A') (A") (A') (A") (A') (A') (A")
                 (A") (A') (A') (A") (A") (A') (A") (A') (A") (A')
                 (A') (A") (A") (A") (A') (A') (A') (A") (A") (A')
                 (A') (A") (A") (A') (A') (A") (A') (A") (A") (A')
                 (A') (A") (A') (A") (A') (A') (A') (A") (A') (A")
                 (A') (A') (A") (A") (A') (A") (A') (A") (A') (A")
                 (A") (A') (A') (A") (A") (A') (A") (A') (A") (A')
                 (A') (A") (A") (A') (A') (A") (A') (A') (A") (A')
                 (A') (A') (A") (A") (A') (A') (A") (A') (A") (A')
                 (A") (A') (A') (A") (A') (A") (A") (A') (A') (A")
                 (A') (A') (A') (A") (A') (A") (A') (A') (A") (A')
                 (A") (A') (A") (A') (A') (A") (A') (A') (A") (A")
                 (A') (A") (A') (A") (A') (A") (A") (A') (A') (A")
                 (A') (A") (A') (A') (A") (A') (A') (A") (A") (A')
                 (A') (A') (A") (A') (A") (A") (A') (A") (A") (A')
                 (A") (A') (A") (A') (A') (A') (A") (A') (A') (A")
                 (A') (A") (A") (A") (A') (A') (A') (A") (A') (A')
                 (A") (A') (A") (A') (A") (A') (A') (A") (A') (A')
                 (A') (A") (A") (A") (A') (A') (A") (A') (A") (A')
                 (A') (A") (A") (A') (A") (A') (A") (A') (A') (A")
                 (A") (A') (A') (A") (A") (A') (A") (A") (A") (A')
                 (A') (A") (A') (A') (A') (A') (A') (A') (A") (A')
                 (A") (A') (A") (A') (A") (A') (A") (A') (A') (A")
                 (A") (A') (A') (A') (A') (A') (A') (A') (A') (A')
 The electronic state of the initial guess is 1-A'.
 Leave Link  401 at Sat Oct 15 18:41:47 2016, MaxMem= 13421772800 cpu:        29.6
 (Enter /share/pub/jeff/software/g09/g09/l502.exe)
 Closed shell SCF:
 Using DIIS extrapolation, IDIIS=  1040.
 Integral symmetry usage will be decided dynamically.
 IVT=     2938834 IEndB=     2938834 NGot= 13421772800 MDV= 13419811987
 LenX= 13419811987 LenY= 13418850607
 Requested convergence on RMS density matrix=1.00D-08 within 128 cycles.
 Requested convergence on MAX density matrix=1.00D-06.
 Requested convergence on             energy=1.00D-06.
 No special actions if energy rises.
 Fock matrices will be formed incrementally for  20 cycles.
 Integral accuracy reduced to 1.0D-05 until final iterations.

 Cycle   1  Pass 0  IDiag  1:
 FoFJK:  IHMeth= 1 ICntrl=       0 DoSepK=F KAlg= 0 I1Cent=   0 FoldK=F
 IRaf= 930000000 NMat=   1 IRICut=       1 DoRegI=T DoRafI=F ISym2E= 1.
 FoFCou: FMM=F IPFlag=           0 FMFlag=      100000 FMFlg1=           0
         NFxFlg=           0 DoJE=F BraDBF=F KetDBF=F FulRan=T
         wScrn=  0.000000 ICntrl=       0 IOpCl=  0 I1Cent=           0 NGrid=           0
         NMat0=    1 NMatS0=      1 NMatT0=    0 NMatD0=    1 NMtDS0=    0 NMtDT0=    0
 Petite list used in FoFCou.
 E= -282.729624896516    
 DIIS: error= 2.30D-02 at cycle   1 NSaved=   1.
 NSaved= 1 IEnMin= 1 EnMin= -282.729624896516     IErMin= 1 ErrMin= 2.30D-02
 ErrMax= 2.30D-02  0.00D+00 EMaxC= 1.00D-01 BMatC= 6.65D-01 BMatP= 6.65D-01
 IDIUse=3 WtCom= 7.70D-01 WtEn= 2.30D-01
 Coeff-Com:  0.100D+01
 Coeff-En:   0.100D+01
 Coeff:      0.100D+01
 Gap=     0.440 Goal=   None    Shift=    0.000
 GapD=    0.440 DampG=2.000 DampE=0.500 DampFc=1.0000 IDamp=-1.
 RMSDP=6.61D-04 MaxDP=7.29D-02              OVMax= 1.20D-01

 Cycle   2  Pass 0  IDiag  1:
 RMSU=  6.58D-04    CP:  9.76D-01
 E= -282.919560940188     Delta-E=       -0.189936043672 Rises=F Damp=F
 DIIS: error= 1.20D-02 at cycle   2 NSaved=   2.
 NSaved= 2 IEnMin= 2 EnMin= -282.919560940188     IErMin= 2 ErrMin= 1.20D-02
 ErrMax= 1.20D-02  0.00D+00 EMaxC= 1.00D-01 BMatC= 8.26D-02 BMatP= 6.65D-01
 IDIUse=3 WtCom= 8.80D-01 WtEn= 1.20D-01
 Coeff-Com:  0.185D+00 0.815D+00
 Coeff-En:   0.000D+00 0.100D+01
 Coeff:      0.163D+00 0.837D+00
 Gap=     0.536 Goal=   None    Shift=    0.000
 RMSDP=4.09D-04 MaxDP=6.11D-02 DE=-1.90D-01 OVMax= 5.78D-02

 Cycle   3  Pass 0  IDiag  1:
 RMSU=  2.37D-04    CP:  9.80D-01  4.94D-01
 E= -282.966891243941     Delta-E=       -0.047330303753 Rises=F Damp=F
 DIIS: error= 4.74D-03 at cycle   3 NSaved=   3.
 NSaved= 3 IEnMin= 3 EnMin= -282.966891243941     IErMin= 3 ErrMin= 4.74D-03
 ErrMax= 4.74D-03  0.00D+00 EMaxC= 1.00D-01 BMatC= 1.20D-02 BMatP= 8.26D-02
 IDIUse=3 WtCom= 9.53D-01 WtEn= 4.74D-02
 Coeff-Com: -0.247D-01 0.247D+00 0.777D+00
 Coeff-En:   0.000D+00 0.000D+00 0.100D+01
 Coeff:     -0.235D-01 0.236D+00 0.788D+00
 Gap=     0.506 Goal=   None    Shift=    0.000
 RMSDP=5.23D-05 MaxDP=5.48D-03 DE=-4.73D-02 OVMax= 2.68D-02

 Cycle   4  Pass 0  IDiag  1:
 RMSU=  4.51D-05    CP:  9.78D-01  5.33D-01  1.00D+00
 E= -282.974415622513     Delta-E=       -0.007524378572 Rises=F Damp=F
 DIIS: error= 1.50D-03 at cycle   4 NSaved=   4.
 NSaved= 4 IEnMin= 4 EnMin= -282.974415622513     IErMin= 4 ErrMin= 1.50D-03
 ErrMax= 1.50D-03  0.00D+00 EMaxC= 1.00D-01 BMatC= 4.22D-04 BMatP= 1.20D-02
 IDIUse=3 WtCom= 9.85D-01 WtEn= 1.50D-02
 Coeff-Com: -0.111D-01 0.572D-01 0.251D+00 0.703D+00
 Coeff-En:   0.000D+00 0.000D+00 0.000D+00 0.100D+01
 Coeff:     -0.109D-01 0.564D-01 0.247D+00 0.707D+00
 Gap=     0.501 Goal=   None    Shift=    0.000
 RMSDP=1.81D-05 MaxDP=1.84D-03 DE=-7.52D-03 OVMax= 5.00D-03

 Cycle   5  Pass 0  IDiag  1:
 RMSU=  1.30D-05    CP:  9.77D-01  5.24D-01  1.05D+00  9.28D-01
 E= -282.974767626864     Delta-E=       -0.000352004351 Rises=F Damp=F
 DIIS: error= 3.61D-04 at cycle   5 NSaved=   5.
 NSaved= 5 IEnMin= 5 EnMin= -282.974767626864     IErMin= 5 ErrMin= 3.61D-04
 ErrMax= 3.61D-04  0.00D+00 EMaxC= 1.00D-01 BMatC= 2.95D-05 BMatP= 4.22D-04
 IDIUse=3 WtCom= 9.96D-01 WtEn= 3.61D-03
 Coeff-Com:  0.208D-02-0.233D-01-0.765D-01 0.441D-01 0.105D+01
 Coeff-En:   0.000D+00 0.000D+00 0.000D+00 0.000D+00 0.100D+01
 Coeff:      0.207D-02-0.232D-01-0.763D-01 0.439D-01 0.105D+01
 Gap=     0.502 Goal=   None    Shift=    0.000
 RMSDP=1.65D-05 MaxDP=2.37D-03 DE=-3.52D-04 OVMax= 3.75D-03

 Cycle   6  Pass 0  IDiag  1:
 RMSU=  4.72D-06    CP:  9.77D-01  5.09D-01  1.09D+00  1.08D+00  1.28D+00
 E= -282.974820714500     Delta-E=       -0.000053087636 Rises=F Damp=F
 DIIS: error= 1.24D-04 at cycle   6 NSaved=   6.
 NSaved= 6 IEnMin= 6 EnMin= -282.974820714500     IErMin= 6 ErrMin= 1.24D-04
 ErrMax= 1.24D-04  0.00D+00 EMaxC= 1.00D-01 BMatC= 4.35D-06 BMatP= 2.95D-05
 IDIUse=3 WtCom= 9.99D-01 WtEn= 1.24D-03
 Coeff-Com:  0.151D-02-0.111D-01-0.411D-01-0.723D-01 0.206D+00 0.917D+00
 Coeff-En:   0.000D+00 0.000D+00 0.000D+00 0.000D+00 0.000D+00 0.100D+01
 Coeff:      0.151D-02-0.111D-01-0.411D-01-0.722D-01 0.206D+00 0.917D+00
 Gap=     0.503 Goal=   None    Shift=    0.000
 RMSDP=5.73D-06 MaxDP=6.64D-04 DE=-5.31D-05 OVMax= 1.07D-03

 Initial convergence to 1.0D-05 achieved.  Increase integral accuracy.
 Cycle   7  Pass 1  IDiag  1:
 E= -282.974821754539     Delta-E=       -0.000001040039 Rises=F Damp=F
 DIIS: error= 1.42D-04 at cycle   1 NSaved=   1.
 NSaved= 1 IEnMin= 1 EnMin= -282.974821754539     IErMin= 1 ErrMin= 1.42D-04
 ErrMax= 1.42D-04  0.00D+00 EMaxC= 1.00D-01 BMatC= 1.50D-05 BMatP= 1.50D-05
 IDIUse=3 WtCom= 9.99D-01 WtEn= 1.42D-03
 Coeff-Com:  0.100D+01
 Coeff-En:   0.100D+01
 Coeff:      0.100D+01
 Gap=     0.503 Goal=   None    Shift=    0.000
 RMSDP=5.73D-06 MaxDP=6.64D-04 DE=-1.04D-06 OVMax= 4.88D-04

 Cycle   8  Pass 1  IDiag  1:
 RMSU=  4.36D-05    CP:  9.99D-01
 E= -282.974824773780     Delta-E=       -0.000003019241 Rises=F Damp=F
 DIIS: error= 3.02D-05 at cycle   2 NSaved=   2.
 NSaved= 2 IEnMin= 2 EnMin= -282.974824773780     IErMin= 2 ErrMin= 3.02D-05
 ErrMax= 3.02D-05  0.00D+00 EMaxC= 1.00D-01 BMatC= 1.64D-07 BMatP= 1.50D-05
 IDIUse=1 WtCom= 1.00D+00 WtEn= 0.00D+00
 Coeff-Com: -0.751D-02 0.101D+01
 Coeff:     -0.751D-02 0.101D+01
 Gap=     0.503 Goal=   None    Shift=    0.000
 RMSDP=1.93D-06 MaxDP=1.67D-04 DE=-3.02D-06 OVMax= 3.10D-04

 Cycle   9  Pass 1  IDiag  1:
 RMSU=  1.01D-06    CP:  9.99D-01  1.04D+00
 E= -282.974825130253     Delta-E=       -0.000000356473 Rises=F Damp=F
 DIIS: error= 1.60D-05 at cycle   3 NSaved=   3.
 NSaved= 3 IEnMin= 3 EnMin= -282.974825130253     IErMin= 3 ErrMin= 1.60D-05
 ErrMax= 1.60D-05  0.00D+00 EMaxC= 1.00D-01 BMatC= 6.64D-08 BMatP= 1.64D-07
 IDIUse=1 WtCom= 1.00D+00 WtEn= 0.00D+00
 Coeff-Com: -0.995D-02 0.232D+00 0.778D+00
 Coeff:     -0.995D-02 0.232D+00 0.778D+00
 Gap=     0.503 Goal=   None    Shift=    0.000
 RMSDP=3.07D-07 MaxDP=3.16D-05 DE=-3.56D-07 OVMax= 1.16D-04

 Cycle  10  Pass 1  IDiag  1:
 RMSU=  2.10D-07    CP:  9.99D-01  1.04D+00  1.20D+00
 E= -282.974825234523     Delta-E=       -0.000000104270 Rises=F Damp=F
 DIIS: error= 1.13D-05 at cycle   4 NSaved=   4.
 NSaved= 4 IEnMin= 4 EnMin= -282.974825234523     IErMin= 4 ErrMin= 1.13D-05
 ErrMax= 1.13D-05  0.00D+00 EMaxC= 1.00D-01 BMatC= 1.66D-08 BMatP= 6.64D-08
 IDIUse=1 WtCom= 1.00D+00 WtEn= 0.00D+00
 Coeff-Com:  0.494D-02-0.458D+00-0.229D+00 0.168D+01
 Coeff:      0.494D-02-0.458D+00-0.229D+00 0.168D+01
 Gap=     0.503 Goal=   None    Shift=    0.000
 RMSDP=4.46D-07 MaxDP=4.76D-05 DE=-1.04D-07 OVMax= 2.42D-04

 Cycle  11  Pass 1  IDiag  1:
 RMSU=  1.46D-07    CP:  9.99D-01  1.04D+00  1.50D+00  2.28D+00
 E= -282.974825303852     Delta-E=       -0.000000069329 Rises=F Damp=F
 DIIS: error= 1.27D-06 at cycle   5 NSaved=   5.
 NSaved= 5 IEnMin= 5 EnMin= -282.974825303852     IErMin= 5 ErrMin= 1.27D-06
 ErrMax= 1.27D-06  0.00D+00 EMaxC= 1.00D-01 BMatC= 7.83D-10 BMatP= 1.66D-08
 IDIUse=1 WtCom= 1.00D+00 WtEn= 0.00D+00
 Coeff-Com:  0.197D-02-0.158D+00-0.114D+00 0.537D+00 0.732D+00
 Coeff:      0.197D-02-0.158D+00-0.114D+00 0.537D+00 0.732D+00
 Gap=     0.503 Goal=   None    Shift=    0.000
 RMSDP=4.79D-08 MaxDP=4.88D-06 DE=-6.93D-08 OVMax= 1.36D-05

 Cycle  12  Pass 1  IDiag  1:
 RMSU=  2.73D-08    CP:  9.99D-01  1.04D+00  1.51D+00  2.42D+00  1.13D+00
 E= -282.974825304718     Delta-E=       -0.000000000866 Rises=F Damp=F
 DIIS: error= 5.61D-07 at cycle   6 NSaved=   6.
 NSaved= 6 IEnMin= 6 EnMin= -282.974825304718     IErMin= 6 ErrMin= 5.61D-07
 ErrMax= 5.61D-07  0.00D+00 EMaxC= 1.00D-01 BMatC= 5.76D-11 BMatP= 7.83D-10
 IDIUse=1 WtCom= 1.00D+00 WtEn= 0.00D+00
 Coeff-Com: -0.518D-03 0.494D-01 0.179D-01-0.164D+00 0.169D-01 0.108D+01
 Coeff:     -0.518D-03 0.494D-01 0.179D-01-0.164D+00 0.169D-01 0.108D+01
 Gap=     0.503 Goal=   None    Shift=    0.000
 RMSDP=3.18D-08 MaxDP=3.22D-06 DE=-8.66D-10 OVMax= 4.15D-06

 Cycle  13  Pass 1  IDiag  1:
 RMSU=  1.18D-08    CP:  9.99D-01  1.04D+00  1.49D+00  2.43D+00  1.18D+00
                    CP:  1.58D+00
 E= -282.974825304846     Delta-E=       -0.000000000128 Rises=F Damp=F
 DIIS: error= 1.71D-07 at cycle   7 NSaved=   7.
 NSaved= 7 IEnMin= 7 EnMin= -282.974825304846     IErMin= 7 ErrMin= 1.71D-07
 ErrMax= 1.71D-07  0.00D+00 EMaxC= 1.00D-01 BMatC= 1.24D-11 BMatP= 5.76D-11
 IDIUse=1 WtCom= 1.00D+00 WtEn= 0.00D+00
 Coeff-Com: -0.388D-03 0.326D-01 0.168D-01-0.107D+00-0.117D+00 0.224D+00
 Coeff-Com:  0.951D+00
 Coeff:     -0.388D-03 0.326D-01 0.168D-01-0.107D+00-0.117D+00 0.224D+00
 Coeff:      0.951D+00
 Gap=     0.503 Goal=   None    Shift=    0.000
 RMSDP=1.11D-08 MaxDP=1.78D-06 DE=-1.28D-10 OVMax= 1.55D-06

 Cycle  14  Pass 1  IDiag  1:
 RMSU=  4.02D-09    CP:  9.99D-01  1.04D+00  1.49D+00  2.42D+00  1.19D+00
                    CP:  1.90D+00  1.44D+00
 E= -282.974825304847     Delta-E=       -0.000000000001 Rises=F Damp=F
 DIIS: error= 4.98D-08 at cycle   8 NSaved=   8.
 NSaved= 8 IEnMin= 8 EnMin= -282.974825304847     IErMin= 8 ErrMin= 4.98D-08
 ErrMax= 4.98D-08  0.00D+00 EMaxC= 1.00D-01 BMatC= 6.17D-13 BMatP= 1.24D-11
 IDIUse=1 WtCom= 1.00D+00 WtEn= 0.00D+00
 Coeff-Com:  0.419D-04-0.425D-02-0.195D-02 0.159D-01-0.111D-01-0.118D+00
 Coeff-Com:  0.440D-01 0.107D+01
 Coeff:      0.419D-04-0.425D-02-0.195D-02 0.159D-01-0.111D-01-0.118D+00
 Coeff:      0.440D-01 0.107D+01
 Gap=     0.503 Goal=   None    Shift=    0.000
 RMSDP=5.18D-09 MaxDP=6.91D-07 DE=-7.39D-13 OVMax= 5.16D-07

 SCF Done:  E(RHF) =  -282.974825305     A.U. after   14 cycles
            NFock= 14  Conv=0.52D-08     -V/T= 2.0010
 KE= 2.826871047854D+02 PE=-1.025963147886D+03 EE= 2.805608143152D+02
 Leave Link  502 at Sat Oct 15 18:49:46 2016, MaxMem= 13421772800 cpu:     14994.1
 (Enter /share/pub/jeff/software/g09/g09/l601.exe)
 Copying SCF densities to generalized density rwf, IOpCl= 0 IROHF=0.

 **********************************************************************

            Population analysis using the SCF density.

 **********************************************************************

 Orbital symmetries:
       Occupied  (A') (A') (A') (A') (A') (A') (A') (A') (A') (A')
                 (A') (A') (A") (A") (A') (A') (A") (A") (A') (A')
       Virtual   (A') (A') (A") (A') (A") (A') (A") (A') (A') (A")
                 (A') (A') (A") (A") (A') (A') (A') (A') (A") (A')
                 (A") (A') (A') (A') (A") (A') (A') (A') (A") (A")
                 (A') (A') (A') (A") (A') (A") (A') (A") (A') (A')
                 (A") (A") (A") (A') (A') (A') (A') (A") (A") (A')
                 (A') (A') (A") (A') (A') (A') (A') (A') (A") (A')
                 (A") (A') (A") (A") (A') (A') (A") (A') (A') (A')
                 (A') (A") (A') (A") (A') (A") (A') (A") (A') (A")
                 (A') (A") (A') (A') (A") (A') (A") (A') (A') (A")
                 (A') (A") (A') (A') (A") (A') (A") (A') (A") (A")
                 (A') (A') (A") (A') (A") (A') (A") (A") (A') (A')
                 (A") (A') (A') (A") (A') (A") (A') (A') (A") (A')
                 (A') (A") (A") (A') (A") (A') (A') (A") (A') (A")
                 (A') (A") (A') (A') (A') (A') (A') (A") (A") (A')
                 (A") (A') (A") (A') (A') (A") (A') (A') (A") (A')
                 (A') (A') (A") (A") (A') (A') (A") (A') (A') (A")
                 (A") (A') (A') (A') (A") (A') (A") (A') (A') (A")
                 (A') (A") (A") (A') (A') (A') (A") (A') (A") (A')
                 (A') (A") (A") (A') (A") (A') (A') (A") (A') (A')
                 (A') (A") (A") (A") (A') (A") (A') (A') (A") (A')
                 (A") (A") (A') (A') (A") (A') (A') (A') (A") (A")
                 (A') (A') (A") (A") (A') (A") (A') (A') (A") (A')
                 (A') (A") (A') (A') (A") (A') (A") (A') (A') (A")
                 (A') (A") (A') (A') (A") (A') (A") (A') (A") (A')
                 (A") (A') (A') (A") (A") (A') (A") (A') (A") (A')
                 (A") (A') (A') (A") (A") (A') (A') (A") (A') (A')
                 (A") (A") (A') (A') (A") (A') (A") (A') (A") (A')
                 (A") (A") (A") (A') (A') (A") (A') (A") (A') (A')
                 (A") (A') (A') (A") (A") (A") (A') (A') (A') (A")
                 (A') (A') (A") (A') (A') (A") (A") (A') (A') (A')
                 (A') (A") (A') (A") (A') (A") (A') (A") (A') (A')
                 (A") (A") (A') (A") (A') (A') (A') (A') (A") (A")
                 (A') (A') (A") (A') (A') (A") (A') (A') (A") (A')
                 (A') (A") (A') (A') (A') (A") (A") (A') (A") (A')
                 (A") (A') (A') (A") (A") (A') (A") (A') (A') (A")
                 (A') (A") (A') (A") (A") (A') (A') (A") (A') (A")
                 (A') (A") (A') (A") (A') (A') (A") (A') (A") (A")
                 (A') (A') (A") (A') (A") (A') (A') (A") (A') (A")
                 (A') (A') (A') (A") (A") (A') (A') (A") (A') (A")
                 (A') (A') (A') (A") (A') (A") (A") (A') (A") (A')
                 (A') (A") (A') (A") (A') (A") (A') (A") (A") (A')
                 (A') (A") (A') (A") (A') (A') (A") (A') (A') (A")
                 (A') (A') (A') (A") (A') (A') (A") (A') (A") (A')
                 (A") (A") (A') (A') (A") (A') (A') (A') (A") (A")
                 (A') (A") (A') (A') (A") (A") (A') (A') (A") (A")
                 (A') (A') (A") (A') (A") (A") (A') (A') (A") (A')
                 (A') (A') (A") (A') (A') (A') (A') (A") (A") (A")
                 (A') (A") (A') (A') (A") (A") (A') (A") (A") (A')
                 (A") (A') (A") (A') (A") (A') (A') (A") (A') (A')
                 (A") (A') (A") (A') (A') (A") (A') (A") (A') (A")
                 (A') (A") (A") (A') (A") (A') (A") (A") (A') (A")
                 (A') (A') (A") (A') (A') (A") (A') (A") (A') (A")
                 (A') (A') (A") (A') (A') (A") (A") (A') (A") (A")
                 (A") (A') (A') (A') (A") (A") (A') (A") (A') (A')
                 (A') (A') (A') (A") (A') (A") (A') (A") (A") (A')
                 (A") (A") (A') (A') (A') (A') (A") (A') (A') (A")
                 (A") (A') (A") (A') (A") (A') (A") (A') (A") (A')
                 (A') (A') (A') (A") (A") (A') (A') (A") (A') (A')
                 (A') (A") (A') (A') (A") (A") (A') (A") (A') (A")
                 (A') (A") (A') (A") (A") (A') (A') (A") (A') (A')
                 (A") (A") (A') (A') (A') (A") (A') (A") (A') (A")
                 (A') (A") (A') (A") (A") (A') (A") (A') (A") (A')
                 (A") (A') (A") (A') (A') (A") (A') (A") (A') (A")
                 (A') (A') (A") (A") (A') (A') (A") (A') (A') (A')
                 (A') (A") (A") (A") (A') (A') (A") (A') (A') (A")
                 (A') (A") (A') (A") (A') (A') (A") (A") (A') (A')
                 (A') (A") (A") (A') (A') (A") (A") (A') (A') (A")
                 (A') (A") (A') (A") (A") (A') (A") (A") (A') (A')
                 (A") (A") (A') (A') (A') (A') (A') (A') (A") (A')
                 (A") (A') (A") (A') (A') (A") (A') (A") (A") (A")
                 (A') (A') (A') (A') (A') (A') (A') (A') (A') (A')
 The electronic state is 1-A'.
 Alpha  occ. eigenvalues --  -20.61585 -20.55338 -15.55045 -11.38590 -11.27699
 Alpha  occ. eigenvalues --   -1.47312  -1.36989  -1.19895  -0.98077  -0.81891
 Alpha  occ. eigenvalues --   -0.71227  -0.70184  -0.69857  -0.63267  -0.60515
 Alpha  occ. eigenvalues --   -0.58949  -0.53796  -0.49233  -0.46961  -0.41310
 Alpha virt. eigenvalues --    0.08944   0.10485   0.11815   0.12492   0.15828
 Alpha virt. eigenvalues --    0.17482   0.18083   0.20706   0.22126   0.22790
 Alpha virt. eigenvalues --    0.27065   0.28508   0.30147   0.32946   0.32987
 Alpha virt. eigenvalues --    0.33658   0.36067   0.37814   0.39104   0.39159
 Alpha virt. eigenvalues --    0.40869   0.41925   0.43516   0.45945   0.47847
 Alpha virt. eigenvalues --    0.48390   0.48945   0.51349   0.51710   0.51993
 Alpha virt. eigenvalues --    0.54426   0.58742   0.60531   0.60867   0.61356
 Alpha virt. eigenvalues --    0.63992   0.67819   0.68625   0.70066   0.73516
 Alpha virt. eigenvalues --    0.73869   0.77898   0.79190   0.79218   0.81292
 Alpha virt. eigenvalues --    0.81580   0.82920   0.83550   0.85274   0.86719
 Alpha virt. eigenvalues --    0.88452   0.91259   0.92037   0.92673   0.94546
 Alpha virt. eigenvalues --    0.95807   0.97590   1.00486   1.01688   1.02228
 Alpha virt. eigenvalues --    1.04450   1.05683   1.07051   1.11959   1.11980
 Alpha virt. eigenvalues --    1.12472   1.14657   1.15300   1.18042   1.20656
 Alpha virt. eigenvalues --    1.23210   1.24627   1.25953   1.27065   1.29676
 Alpha virt. eigenvalues --    1.33174   1.33923   1.35513   1.37964   1.40406
 Alpha virt. eigenvalues --    1.40978   1.44383   1.45163   1.49848   1.50839
 Alpha virt. eigenvalues --    1.50947   1.54298   1.55956   1.57640   1.59364
 Alpha virt. eigenvalues --    1.61229   1.61605   1.64975   1.67865   1.68822
 Alpha virt. eigenvalues --    1.72624   1.74010   1.75256   1.75582   1.79414
 Alpha virt. eigenvalues --    1.80025   1.80798   1.82119   1.85905   1.86479
 Alpha virt. eigenvalues --    1.87651   1.91001   1.93473   1.93516   1.93668
 Alpha virt. eigenvalues --    1.95416   1.96658   1.97907   1.98123   2.02550
 Alpha virt. eigenvalues --    2.02998   2.03928   2.06322   2.06787   2.07877
 Alpha virt. eigenvalues --    2.10194   2.10864   2.11317   2.17013   2.18001
 Alpha virt. eigenvalues --    2.21695   2.22465   2.23449   2.27327   2.27789
 Alpha virt. eigenvalues --    2.30544   2.30574   2.33119   2.34964   2.35615
 Alpha virt. eigenvalues --    2.37364   2.40376   2.40659   2.43902   2.46840
 Alpha virt. eigenvalues --    2.48733   2.49105   2.54027   2.55527   2.56543
 Alpha virt. eigenvalues --    2.56757   2.63269   2.65642   2.69907   2.70692
 Alpha virt. eigenvalues --    2.71423   2.78724   2.78969   2.80090   2.80362
 Alpha virt. eigenvalues --    2.80762   2.82839   2.83606   2.86941   2.88388
 Alpha virt. eigenvalues --    2.89191   2.90755   2.94252   2.96673   2.97037
 Alpha virt. eigenvalues --    2.98386   3.00504   3.04201   3.07956   3.11985
 Alpha virt. eigenvalues --    3.16130   3.16438   3.17584   3.19750   3.22575
 Alpha virt. eigenvalues --    3.25586   3.25984   3.27049   3.29263   3.32633
 Alpha virt. eigenvalues --    3.34278   3.37621   3.38156   3.39076   3.48874
 Alpha virt. eigenvalues --    3.49494   3.50140   3.50209   3.54521   3.55655
 Alpha virt. eigenvalues --    3.57700   3.58093   3.62020   3.62332   3.63919
 Alpha virt. eigenvalues --    3.67768   3.70562   3.74114   3.79767   3.82722
 Alpha virt. eigenvalues --    3.83513   3.86352   3.86525   3.90141   3.91917
 Alpha virt. eigenvalues --    3.92980   3.96066   3.96547   3.99156   4.03170
 Alpha virt. eigenvalues --    4.03340   4.04043   4.04172   4.06699   4.09970
 Alpha virt. eigenvalues --    4.14629   4.17718   4.18686   4.20712   4.23865
 Alpha virt. eigenvalues --    4.25042   4.27870   4.28947   4.30878   4.31511
 Alpha virt. eigenvalues --    4.33702   4.34446   4.39220   4.40748   4.42252
 Alpha virt. eigenvalues --    4.44980   4.49080   4.50661   4.51770   4.54381
 Alpha virt. eigenvalues --    4.56879   4.58274   4.61322   4.61726   4.64493
 Alpha virt. eigenvalues --    4.65336   4.66936   4.69772   4.71197   4.75355
 Alpha virt. eigenvalues --    4.76210   4.77675   4.80971   4.81942   4.82947
 Alpha virt. eigenvalues --    4.87689   4.88858   4.89242   4.92400   4.95332
 Alpha virt. eigenvalues --    4.97025   4.99506   5.03883   5.04213   5.05558
 Alpha virt. eigenvalues --    5.07104   5.09586   5.09916   5.15475   5.15906
 Alpha virt. eigenvalues --    5.20261   5.20831   5.23236   5.23602   5.29959
 Alpha virt. eigenvalues --    5.31438   5.32078   5.33681   5.34575   5.37406
 Alpha virt. eigenvalues --    5.39832   5.40502   5.44191   5.45643   5.48459
 Alpha virt. eigenvalues --    5.49362   5.55422   5.59403   5.59613   5.59779
 Alpha virt. eigenvalues --    5.62965   5.63051   5.65529   5.70683   5.72359
 Alpha virt. eigenvalues --    5.74090   5.76816   5.80336   5.82783   5.85841
 Alpha virt. eigenvalues --    5.87290   5.90930   5.91970   5.95062   6.00590
 Alpha virt. eigenvalues --    6.03192   6.05915   6.06637   6.08806   6.11992
 Alpha virt. eigenvalues --    6.13077   6.13218   6.16332   6.22967   6.26038
 Alpha virt. eigenvalues --    6.30490   6.30763   6.34639   6.36649   6.38657
 Alpha virt. eigenvalues --    6.45795   6.47057   6.50618   6.53252   6.61248
 Alpha virt. eigenvalues --    6.61433   6.62435   6.64732   6.67203   6.67919
 Alpha virt. eigenvalues --    6.72586   6.76244   6.80170   6.81214   6.83192
 Alpha virt. eigenvalues --    6.85899   6.91727   6.92773   6.98560   6.99254
 Alpha virt. eigenvalues --    6.99986   7.04219   7.04897   7.13537   7.14704
 Alpha virt. eigenvalues --    7.16833   7.21411   7.24448   7.25243   7.27060
 Alpha virt. eigenvalues --    7.27393   7.29819   7.37433   7.39755   7.41805
 Alpha virt. eigenvalues --    7.43873   7.44692   7.48439   7.48865   7.52508
 Alpha virt. eigenvalues --    7.54940   7.60654   7.61582   7.68206   7.71184
 Alpha virt. eigenvalues --    7.74991   7.76423   7.77991   7.82942   7.83328
 Alpha virt. eigenvalues --    7.84238   7.87197   7.93380   7.95435   7.97590
 Alpha virt. eigenvalues --    8.05529   8.11694   8.14508   8.16462   8.20959
 Alpha virt. eigenvalues --    8.24447   8.28229   8.28880   8.35180   8.37753
 Alpha virt. eigenvalues --    8.38646   8.52544   8.57534   8.59814   8.65990
 Alpha virt. eigenvalues --    8.66329   8.68438   8.70792   8.76458   8.80875
 Alpha virt. eigenvalues --    8.85891   8.91846   8.94102   9.04890   9.06776
 Alpha virt. eigenvalues --    9.06979   9.12527   9.17529   9.21530   9.25386
 Alpha virt. eigenvalues --    9.36710   9.44229   9.48814   9.50951   9.55322
 Alpha virt. eigenvalues --    9.56819   9.60576   9.63401   9.74644   9.78391
 Alpha virt. eigenvalues --    9.81927   9.82409   9.90145   9.94477   9.95970
 Alpha virt. eigenvalues --   10.02139  10.12691  10.13260  10.17092  10.20338
 Alpha virt. eigenvalues --   10.27023  10.34942  10.40081  10.40246  10.43116
 Alpha virt. eigenvalues --   10.45639  10.48280  10.54638  10.57873  10.65078
 Alpha virt. eigenvalues --   10.65864  10.71910  10.73738  10.79588  10.81385
 Alpha virt. eigenvalues --   10.83547  10.88021  10.95595  10.98767  11.01979
 Alpha virt. eigenvalues --   11.04248  11.15401  11.19727  11.27252  11.29333
 Alpha virt. eigenvalues --   11.35355  11.36943  11.38278  11.39940  11.49163
 Alpha virt. eigenvalues --   11.49964  11.53285  11.54460  11.63487  11.70868
 Alpha virt. eigenvalues --   11.73625  11.75319  11.78211  11.82954  11.84838
 Alpha virt. eigenvalues --   11.97453  12.03780  12.05993  12.12226  12.20073
 Alpha virt. eigenvalues --   12.24125  12.27909  12.28801  12.41401  12.46024
 Alpha virt. eigenvalues --   12.49063  12.53894  12.57763  12.63142  12.66885
 Alpha virt. eigenvalues --   12.70650  12.71994  12.72357  12.74243  12.75938
 Alpha virt. eigenvalues --   12.78474  12.78613  12.80043  12.80467  12.84653
 Alpha virt. eigenvalues --   12.85130  12.87701  12.88960  12.90130  12.93515
 Alpha virt. eigenvalues --   12.95549  12.96517  12.97775  13.00528  13.02752
 Alpha virt. eigenvalues --   13.03299  13.05246  13.10176  13.10388  13.12372
 Alpha virt. eigenvalues --   13.15653  13.18085  13.22686  13.25064  13.26535
 Alpha virt. eigenvalues --   13.31118  13.34769  13.38528  13.38922  13.44987
 Alpha virt. eigenvalues --   13.47527  13.50944  13.60678  13.61115  13.63642
 Alpha virt. eigenvalues --   13.64981  13.66731  13.68778  13.69881  13.73504
 Alpha virt. eigenvalues --   13.76330  13.76996  13.79649  13.80417  13.81993
 Alpha virt. eigenvalues --   13.84958  13.87810  13.88218  13.90615  13.93704
 Alpha virt. eigenvalues --   13.95318  13.95418  13.98703  14.03368  14.06288
 Alpha virt. eigenvalues --   14.12674  14.13720  14.17214  14.18821  14.22480
 Alpha virt. eigenvalues --   14.25184  14.25332  14.27643  14.28626  14.29324
 Alpha virt. eigenvalues --   14.30351  14.35074  14.35540  14.38341  14.38342
 Alpha virt. eigenvalues --   14.39875  14.42651  14.42956  14.47262  14.51053
 Alpha virt. eigenvalues --   14.53741  14.55285  14.62939  14.63924  14.65725
 Alpha virt. eigenvalues --   14.68607  14.69932  14.71850  14.73144  14.79658
 Alpha virt. eigenvalues --   14.79782  14.82856  14.85743  14.90775  14.90870
 Alpha virt. eigenvalues --   14.97126  15.01872  15.04839  15.07869  15.14808
 Alpha virt. eigenvalues --   15.19181  15.21952  15.22543  15.24083  15.33599
 Alpha virt. eigenvalues --   15.40112  15.43708  15.44750  15.49551  15.49559
 Alpha virt. eigenvalues --   15.54190  15.63406  15.66801  15.67648  15.79129
 Alpha virt. eigenvalues --   15.81125  15.96571  15.97228  15.99050  16.01994
 Alpha virt. eigenvalues --   16.04711  16.10995  16.24469  16.25513  16.28351
 Alpha virt. eigenvalues --   16.29348  16.32390  16.39060  16.41417  16.45188
 Alpha virt. eigenvalues --   16.46986  16.65406  16.71284  16.72534  16.76509
 Alpha virt. eigenvalues --   16.78015  16.82023  16.83946  16.85748  16.90513
 Alpha virt. eigenvalues --   16.93730  16.96036  17.04267  17.09992  17.13406
 Alpha virt. eigenvalues --   17.26438  17.27707  17.41729  17.41969  17.46421
 Alpha virt. eigenvalues --   17.59078  17.61013  17.69020  17.76972  17.80612
 Alpha virt. eigenvalues --   17.85749  17.89274  17.91899  17.94994  17.96080
 Alpha virt. eigenvalues --   18.07111  18.14067  18.14112  18.28016  18.35906
 Alpha virt. eigenvalues --   18.37897  18.38416  18.45419  18.57326  18.58814
 Alpha virt. eigenvalues --   18.60352  18.75747  18.77457  18.80671  18.88467
 Alpha virt. eigenvalues --   18.88597  18.91347  18.96363  19.00001  19.08161
 Alpha virt. eigenvalues --   19.09058  19.14627  19.19138  19.20918  19.28164
 Alpha virt. eigenvalues --   19.31003  19.39664  19.47899  19.50219  19.55363
 Alpha virt. eigenvalues --   19.56272  19.58980  19.73482  19.76680  19.81434
 Alpha virt. eigenvalues --   19.88924  19.92554  20.02896  20.22391  20.32404
 Alpha virt. eigenvalues --   20.42478  20.78405  20.88095  20.95690  21.01516
 Alpha virt. eigenvalues --   21.02122  21.09369  21.10803  21.24657  21.30789
 Alpha virt. eigenvalues --   21.42996  21.64030  21.71473  22.10899  22.29551
 Alpha virt. eigenvalues --   22.37443  22.48896  22.70318  23.04147  23.08742
 Alpha virt. eigenvalues --   23.20248  23.46537  23.50262  23.69205  23.78439
 Alpha virt. eigenvalues --   23.87634  24.17160  24.22769  25.54880  26.07601
 Alpha virt. eigenvalues --   40.69998  42.51424  53.69437  64.14818  65.13480
          Condensed to atoms (all electrons):
               1          2          3          4          5          6
     1  C    4.158328   0.423171   0.687447  -0.030488   0.392355  -0.141464
     2  O    0.423171   7.867615  -0.082352   0.316677  -0.059278   0.007889
     3  O    0.687447  -0.082352   7.955793   0.005907  -0.065234   0.007514
     4  H   -0.030488   0.316677   0.005907   0.360303   0.007222  -0.002057
     5  C    0.392355  -0.059278  -0.065234   0.007222   4.546103   0.394260
     6  N   -0.141464   0.007889   0.007514  -0.002057   0.394260   6.426535
     7  H   -0.025996  -0.004481  -0.000036  -0.000299   0.419888  -0.019644
     8  H   -0.025996  -0.004481  -0.000036  -0.000299   0.419888  -0.019644
     9  H    0.003130   0.000063  -0.001222  -0.000023  -0.021774   0.419150
    10  H    0.003130   0.000063  -0.001222  -0.000023  -0.021774   0.419150
               7          8          9         10
     1  C   -0.025996  -0.025996   0.003130   0.003130
     2  O   -0.004481  -0.004481   0.000063   0.000063
     3  O   -0.000036  -0.000036  -0.001222  -0.001222
     4  H   -0.000299  -0.000299  -0.000023  -0.000023
     5  C    0.419888   0.419888  -0.021774  -0.021774
     6  N   -0.019644  -0.019644   0.419150   0.419150
     7  H    0.599893  -0.039395  -0.009898   0.005778
     8  H   -0.039395   0.599893   0.005778  -0.009898
     9  H   -0.009898   0.005778   0.421645  -0.030323
    10  H    0.005778  -0.009898  -0.030323   0.421645
 Mulliken charges:
               1
     1  C    0.556383
     2  O   -0.464886
     3  O   -0.506557
     4  H    0.343080
     5  C   -0.011656
     6  N   -0.491690
     7  H    0.074190
     8  H    0.074190
     9  H    0.213474
    10  H    0.213474
 Sum of Mulliken charges =  -0.00000
 Mulliken charges with hydrogens summed into heavy atoms:
               1
     1  C    0.556383
     2  O   -0.121806
     3  O   -0.506557
     5  C    0.136724
     6  N   -0.064743
 Electronic spatial extent (au):  <R**2>=            419.8815
 Charge=             -0.0000 electrons
 Dipole moment (field-independent basis, Debye):
    X=              1.0593    Y=              0.7070    Z=             -0.0000  Tot=              1.2736
 Quadrupole moment (field-independent basis, Debye-Ang):
   XX=            -33.0529   YY=            -30.1699   ZZ=            -27.2377
   XY=              2.7999   XZ=              0.0000   YZ=             -0.0000
 Traceless Quadrupole moment (field-independent basis, Debye-Ang):
   XX=             -2.8994   YY=             -0.0164   ZZ=              2.9158
   XY=              2.7999   XZ=              0.0000   YZ=             -0.0000
 Octapole moment (field-independent basis, Debye-Ang**2):
  XXX=             -0.2955  YYY=             41.0227  ZZZ=              0.0000  XYY=             -1.0379
  XXY=             -8.1471  XXZ=              0.0000  XZZ=             -1.2628  YZZ=             -1.6717
  YYZ=             -0.0000  XYZ=             -0.0000
 Hexadecapole moment (field-independent basis, Debye-Ang**3):
 XXXX=           -148.2697 YYYY=           -333.2802 ZZZZ=            -34.3358 XXXY=            -14.1652
 XXXZ=              0.0000 YYYX=             -0.8309 YYYZ=             -0.0000 ZZZX=              0.0000
 ZZZY=              0.0000 XXYY=            -76.6928 XXZZ=            -26.8739 YYZZ=            -56.0148
 XXYZ=             -0.0000 YYXZ=             -0.0000 ZZXY=             -3.6264
 N-N= 1.797404034807D+02 E-N=-1.025963150202D+03  KE= 2.826871047854D+02
 Symmetry A'   KE= 2.698595121084D+02
 Symmetry A"   KE= 1.282759267694D+01
 No NMR shielding tensors so no spin-rotation constants.
 Leave Link  601 at Sat Oct 15 18:49:48 2016, MaxMem= 13421772800 cpu:        43.3
 (Enter /share/pub/jeff/software/g09/g09/l9999.exe)
 1\1\GINC-R01N18\SP\RHF\CC-pV5Z\C2H5N1O2\JIANGZHONGMING\15-Oct-2016\0\\
 #P HF cc-pV5Z\\start best geom PCCP paper\\0,1\C\O,1,1.3486\O,1,1.2025
 ,2,123.0718\H,2,0.9651,1,107.1011,3,0.,0\C,1,1.5141,3,125.77,2,180.,0\
 N,5,1.442,1,115.3802,3,0.,0\H,5,1.0905,1,107.3709,3,-123.1312,0\H,5,1.
 0905,1,107.3709,3,123.1312,0\H,6,1.0109,5,110.5508,1,-58.6741,0\H,6,1.
 0109,5,110.5508,1,58.6741,0\\Version=ES64L-G09RevE.01\State=1-A'\HF=-2
 82.9748253\RMSD=5.182e-09\Dipole=-0.0813833,0.,0.4944066\Quadrupole=-3
 .0886143,2.1678531,0.9207613,0.,1.2095899,0.\PG=CS [SG(C2H1N1O2),X(H4)
 ]\\@


    WHAT WE HAVE LEARNED
 IS LIKE A HANDFUL OF EARTH;
  WHAT WE HAVE YET TO LEARN
   IS LIKE THE WHOLE WORLD.

         -- AVVAYIAR
 Job cpu time:       0 days  4 hours 12 minutes  8.0 seconds.
 File lengths (MBytes):  RWF=    604 Int=      0 D2E=      0 Chk=     32 Scr=      8
 Normal termination of Gaussian 09 at Sat Oct 15 18:49:48 2016.
