 Entering Gaussian System, Link 0=g09
 Initial command:
 /share/pub/jeff/software/g09/g09/l1.exe "/share/home/jiangzhongming/tmp/Gau-183702.inp" -scrdir="/share/home/jiangzhongming/tmp/"
 Entering Link 1 = /share/pub/jeff/software/g09/g09/l1.exe PID=    183704.
  
 Copyright (c) 1988,1990,1992,1993,1995,1998,2003,2009,2015,
            Gaussian, Inc.  All Rights Reserved.
  
 This is part of the Gaussian(R) 09 program.  It is based on
 the Gaussian(R) 03 system (copyright 2003, Gaussian, Inc.),
 the Gaussian(R) 98 system (copyright 1998, Gaussian, Inc.),
 the Gaussian(R) 94 system (copyright 1995, Gaussian, Inc.),
 the Gaussian 92(TM) system (copyright 1992, Gaussian, Inc.),
 the Gaussian 90(TM) system (copyright 1990, Gaussian, Inc.),
 the Gaussian 88(TM) system (copyright 1988, Gaussian, Inc.),
 the Gaussian 86(TM) system (copyright 1986, Carnegie Mellon
 University), and the Gaussian 82(TM) system (copyright 1983,
 Carnegie Mellon University). Gaussian is a federally registered
 trademark of Gaussian, Inc.
  
 This software contains proprietary and confidential information,
 including trade secrets, belonging to Gaussian, Inc.
  
 This software is provided under written license and may be
 used, copied, transmitted, or stored only in accord with that
 written license.
  
 The following legend is applicable only to US Government
 contracts under FAR:
  
                    RESTRICTED RIGHTS LEGEND
  
 Use, reproduction and disclosure by the US Government is
 subject to restrictions as set forth in subparagraphs (a)
 and (c) of the Commercial Computer Software - Restricted
 Rights clause in FAR 52.227-19.
  
 Gaussian, Inc.
 340 Quinnipiac St., Bldg. 40, Wallingford CT 06492
  
  
 ---------------------------------------------------------------
 Warning -- This program may not be used in any manner that
 competes with the business of Gaussian, Inc. or will provide
 assistance to any competitor of Gaussian, Inc.  The licensee
 of this program is prohibited from giving any competitor of
 Gaussian, Inc. access to this program.  By using this program,
 the user acknowledges that Gaussian, Inc. is engaged in the
 business of creating and licensing software in the field of
 computational chemistry and represents and warrants to the
 licensee that it is not a competitor of Gaussian, Inc. and that
 it will not use this program in any manner prohibited above.
 ---------------------------------------------------------------
  

 Cite this work as:
 Gaussian 09, Revision E.01,
 M. J. Frisch, G. W. Trucks, H. B. Schlegel, G. E. Scuseria, 
 M. A. Robb, J. R. Cheeseman, G. Scalmani, V. Barone, B. Mennucci, 
 G. A. Petersson, H. Nakatsuji, M. Caricato, X. Li, H. P. Hratchian, 
 A. F. Izmaylov, J. Bloino, G. Zheng, J. L. Sonnenberg, M. Hada, 
 M. Ehara, K. Toyota, R. Fukuda, J. Hasegawa, M. Ishida, T. Nakajima, 
 Y. Honda, O. Kitao, H. Nakai, T. Vreven, J. A. Montgomery, Jr., 
 J. E. Peralta, F. Ogliaro, M. Bearpark, J. J. Heyd, E. Brothers, 
 K. N. Kudin, V. N. Staroverov, T. Keith, R. Kobayashi, J. Normand, 
 K. Raghavachari, A. Rendell, J. C. Burant, S. S. Iyengar, J. Tomasi, 
 M. Cossi, N. Rega, J. M. Millam, M. Klene, J. E. Knox, J. B. Cross, 
 V. Bakken, C. Adamo, J. Jaramillo, R. Gomperts, R. E. Stratmann, 
 O. Yazyev, A. J. Austin, R. Cammi, C. Pomelli, J. W. Ochterski, 
 R. L. Martin, K. Morokuma, V. G. Zakrzewski, G. A. Voth, 
 P. Salvador, J. J. Dannenberg, S. Dapprich, A. D. Daniels, 
 O. Farkas, J. B. Foresman, J. V. Ortiz, J. Cioslowski, 
 and D. J. Fox, Gaussian, Inc., Wallingford CT, 2013.
 
 ******************************************
 Gaussian 09:  ES64L-G09RevE.01 30-Nov-2015
                26-Dec-2016 
 ******************************************
 %chk=VIII_gtc_Best_geom_HF_V5Z.chk
 %nprocshared=32
 Will use up to   32 processors via shared memory.
 %mem=60GB
 -------------
 #P HF cc-pV5Z
 -------------
 1/38=1/1;
 2/12=2,17=6,18=5,40=1/2;
 3/5=16,6=3,11=9,16=1,25=1,30=1/1,2,3;
 4//1;
 5/5=2,38=5/2;
 6/7=2,8=2,9=2,10=2,28=1/1;
 99/5=1,9=1/99;
 Leave Link    1 at Mon Dec 26 21:20:40 2016, MaxMem=  8053063680 cpu:         4.7
 (Enter /share/pub/jeff/software/g09/g09/l101.exe)
 -------
 VIII_SP
 -------
 Symbolic Z-matrix:
 Charge =  0 Multiplicity = 1
 C
 O                    1    B1
 O                    1    B2       2    A1
 H                    2    B3       1    A2       3    D1       0
 C                    1    B4       3    A3       2    D2       0
 N                    5    B5       1    A4       3    D3       0
 H                    5    B6       1    A5       3    D4       0
 H                    5    B7       1    A6       3    D5       0
 H                    6    B8       5    A7       1    D6       0
 H                    6    B9       5    A8       1    D7       0
       Variables:
  B1                    1.35064                  
  B2                    1.19653                  
  B3                    0.96165                  
  B4                    1.51406                  
  B5                    1.44636                  
  B6                    1.09684                  
  B7                    1.09378                  
  B8                    1.00807                  
  B9                    1.0126                   
  A1                  120.39321                  
  A2                  110.57402                  
  A3                  124.09641                  
  A4                  110.35148                  
  A5                  106.10493                  
  A6                  108.59165                  
  A7                  112.08781                  
  A8                  109.66844                  
  D1                 -178.19299                  
  D2                  178.41709                  
  D3                   14.53424                  
  D4                 -109.33023                  
  D5                  135.75133                  
  D6                 -144.9572                   
  D7                  -23.85712                  
 
 NAtoms=     10 NQM=       10 NQMF=       0 NMMI=      0 NMMIF=      0
                NMic=       0 NMicF=      0.
                    Isotopes and Nuclear Properties:
 (Nuclear quadrupole moments (NQMom) in fm**2, nuclear magnetic moments (NMagM)
  in nuclear magnetons)

  Atom         1           2           3           4           5           6           7           8           9          10
 IAtWgt=          12          16          16           1          12          14           1           1           1           1
 AtmWgt=  12.0000000  15.9949146  15.9949146   1.0078250  12.0000000  14.0030740   1.0078250   1.0078250   1.0078250   1.0078250
 NucSpn=           0           0           0           1           0           2           1           1           1           1
 AtZEff=   0.0000000   0.0000000   0.0000000   0.0000000   0.0000000   0.0000000   0.0000000   0.0000000   0.0000000   0.0000000
 NQMom=    0.0000000   0.0000000   0.0000000   0.0000000   0.0000000   2.0440000   0.0000000   0.0000000   0.0000000   0.0000000
 NMagM=    0.0000000   0.0000000   0.0000000   2.7928460   0.0000000   0.4037610   2.7928460   2.7928460   2.7928460   2.7928460
 AtZNuc=   6.0000000   8.0000000   8.0000000   1.0000000   6.0000000   7.0000000   1.0000000   1.0000000   1.0000000   1.0000000
 Leave Link  101 at Mon Dec 26 21:20:40 2016, MaxMem=  8053063680 cpu:         2.4
 (Enter /share/pub/jeff/software/g09/g09/l202.exe)
                          Input orientation:                          
 ---------------------------------------------------------------------
 Center     Atomic      Atomic             Coordinates (Angstroms)
 Number     Number       Type             X           Y           Z
 ---------------------------------------------------------------------
      1          6           0        0.000000    0.000000    0.000000
      2          8           0        0.000000    0.000000    1.350639
      3          8           0        1.032094    0.000000   -0.605362
      4          1           0       -0.899872   -0.028390    1.688581
      5          6           0       -1.366212    0.034634   -0.651657
      6          7           0       -1.259382   -0.273721   -2.060724
      7          1           0       -1.777130    1.030203   -0.444170
      8          1           0       -2.010889   -0.691992   -0.148913
      9          1           0       -1.923118    0.245663   -2.613800
     10          1           0       -0.324127   -0.061947   -2.385997
 ---------------------------------------------------------------------
                    Distance matrix (angstroms):
                    1          2          3          4          5
     1  C    0.000000
     2  O    1.350639   0.000000
     3  O    1.196529   2.211596   0.000000
     4  H    1.913604   0.961655   2.999245   0.000000
     5  C    1.514065   2.424237   2.399003   2.387082   0.000000
     6  N    2.430545   3.646692   2.728345   3.774483   1.446363
     7  H    2.101617   2.727792   2.996505   2.537484   1.096842
     8  H    2.131831   2.602150   3.153878   2.247468   1.093775
     9  H    3.254333   4.413106   3.581543   4.430871   2.050532
    10  H    2.408709   3.751179   2.239160   4.115191   2.025638
                    6          7          8          9         10
     6  N    0.000000
     7  H    2.140450   0.000000
     8  H    2.096362   1.762889   0.000000
     9  H    1.008066   2.311733   2.638668   0.000000
    10  H    1.012597   2.659831   2.871701   1.644168   0.000000
 Stoichiometry    C2H5NO2
 Framework group  C1[X(C2H5NO2)]
 Deg. of freedom    24
 Full point group                 C1      NOp   1
 Largest Abelian subgroup         C1      NOp   1
 Largest concise Abelian subgroup C1      NOp   1
                         Standard orientation:                         
 ---------------------------------------------------------------------
 Center     Atomic      Atomic             Coordinates (Angstroms)
 Number     Number       Type             X           Y           Z
 ---------------------------------------------------------------------
      1          6           0        0.546143    0.148212    0.012628
      2          8           0        1.729714   -0.499968   -0.044362
      3          8           0        0.511357    1.343991    0.036745
      4          1           0        1.592593   -1.450896   -0.085742
      5          6           0       -0.679769   -0.738038    0.076616
      6          7           0       -1.874850    0.037759   -0.172157
      7          1           0       -0.657798   -1.217003    1.063110
      8          1           0       -0.576213   -1.530916   -0.669685
      9          1           0       -2.658726   -0.288884    0.371019
     10          1           0       -1.702724    1.010149    0.051861
 ---------------------------------------------------------------------
 Rotational constants (GHZ):     10.3415311      4.0158603      2.9691541
 Leave Link  202 at Mon Dec 26 21:20:40 2016, MaxMem=  8053063680 cpu:         1.9
 (Enter /share/pub/jeff/software/g09/g09/l301.exe)
 Standard basis: CC-pV5Z (5D, 7F)
 Ernie: Thresh=  0.10000D-02 Tol=  0.10000D-05 Strict=F.
 Ernie:  20 primitive shells out of 300 were deleted.
 There are   980 symmetry adapted cartesian basis functions of A   symmetry.
 There are   730 symmetry adapted basis functions of A   symmetry.
   730 basis functions,  1110 primitive gaussians,   980 cartesian basis functions
    20 alpha electrons       20 beta electrons
       nuclear repulsion energy       180.5379058292 Hartrees.
 IExCor=    0 DFT=F Ex=HF Corr=None ExCW=0 ScaHFX=  1.000000
 ScaDFX=  1.000000  1.000000  1.000000  1.000000 ScalE2=  1.000000  1.000000
 IRadAn=      0 IRanWt=     -1 IRanGd=            0 ICorTp=0 IEmpDi=  4
 NAtoms=   10 NActive=   10 NUniq=   10 SFac= 1.00D+00 NAtFMM=   60 NAOKFM=F Big=F
 Integral buffers will be    131072 words long.
 Raffenetti 1 integral format.
 Two-electron integral symmetry is turned on.
 Leave Link  301 at Mon Dec 26 21:20:41 2016, MaxMem=  8053063680 cpu:         4.3
 (Enter /share/pub/jeff/software/g09/g09/l302.exe)
 NPDir=0 NMtPBC=     1 NCelOv=     1 NCel=       1 NClECP=     1 NCelD=      1
         NCelK=      1 NCelE2=     1 NClLst=     1 CellRange=     0.0.
 One-electron integrals computed using PRISM.
 NBasis=   730 RedAO= T EigKep=  1.59D-05  NBF=   730
 NBsUse=   730 1.00D-06 EigRej= -1.00D+00 NBFU=   730
 Leave Link  302 at Mon Dec 26 21:20:42 2016, MaxMem=  8053063680 cpu:        29.5
 (Enter /share/pub/jeff/software/g09/g09/l303.exe)
 DipDrv:  MaxL=1.
 Leave Link  303 at Mon Dec 26 21:20:43 2016, MaxMem=  8053063680 cpu:        13.0
 (Enter /share/pub/jeff/software/g09/g09/l401.exe)
 ExpMin= 7.28D-02 ExpMax= 1.64D+05 ExpMxC= 5.16D+02 IAcc=2 IRadAn=         4 AccDes= 0.00D+00
 Harris functional with IExCor=  205 and IRadAn=       4 diagonalized for initial guess.
 HarFok:  IExCor=  205 AccDes= 0.00D+00 IRadAn=         4 IDoV= 1 UseB2=F ITyADJ=14
 ICtDFT=  3500011 ScaDFX=  1.000000  1.000000  1.000000  1.000000
 FoFCou: FMM=F IPFlag=           0 FMFlag=      100000 FMFlg1=           0
         NFxFlg=           0 DoJE=T BraDBF=F KetDBF=T FulRan=T
         wScrn=  0.000000 ICntrl=     500 IOpCl=  0 I1Cent=   200000004 NGrid=           0
         NMat0=    1 NMatS0=      1 NMatT0=    0 NMatD0=    1 NMtDS0=    0 NMtDT0=    0
 Petite list used in FoFCou.
 Harris En= -283.254564062717    
 JPrj=0 DoOrth=F DoCkMO=F.
 Leave Link  401 at Mon Dec 26 21:20:45 2016, MaxMem=  8053063680 cpu:        41.6
 (Enter /share/pub/jeff/software/g09/g09/l502.exe)
 Closed shell SCF:
 Using DIIS extrapolation, IDIIS=  1040.
 Integral symmetry usage will be decided dynamically.
 IVT=     2937920 IEndB=     2937920 NGot=  8053063680 MDV=  8051103781
 LenX=  8051103781 LenY=  8050142401
 Requested convergence on RMS density matrix=1.00D-08 within 128 cycles.
 Requested convergence on MAX density matrix=1.00D-06.
 Requested convergence on             energy=1.00D-06.
 No special actions if energy rises.
 Fock matrices will be formed incrementally for  20 cycles.
 Integral accuracy reduced to 1.0D-05 until final iterations.

 Cycle   1  Pass 0  IDiag  1:
 FoFJK:  IHMeth= 1 ICntrl=       0 DoSepK=F KAlg= 0 I1Cent=   0 FoldK=F
 IRaf= 940000000 NMat=   1 IRICut=       1 DoRegI=T DoRafI=F ISym2E= 0.
 FoFCou: FMM=F IPFlag=           0 FMFlag=      100000 FMFlg1=           0
         NFxFlg=           0 DoJE=F BraDBF=F KetDBF=F FulRan=T
         wScrn=  0.000000 ICntrl=       0 IOpCl=  0 I1Cent=           0 NGrid=           0
         NMat0=    1 NMatS0=      1 NMatT0=    0 NMatD0=    1 NMtDS0=    0 NMtDT0=    0
 Symmetry not used in FoFCou.
 E= -282.712707813090    
 DIIS: error= 2.54D-02 at cycle   1 NSaved=   1.
 NSaved= 1 IEnMin= 1 EnMin= -282.712707813090     IErMin= 1 ErrMin= 2.54D-02
 ErrMax= 2.54D-02  0.00D+00 EMaxC= 1.00D-01 BMatC= 6.71D-01 BMatP= 6.71D-01
 IDIUse=3 WtCom= 7.46D-01 WtEn= 2.54D-01
 Coeff-Com:  0.100D+01
 Coeff-En:   0.100D+01
 Coeff:      0.100D+01
 Gap=     0.512 Goal=   None    Shift=    0.000
 GapD=    0.512 DampG=2.000 DampE=0.500 DampFc=1.0000 IDamp=-1.
 RMSDP=8.45D-04 MaxDP=8.17D-02              OVMax= 1.29D-01

 Cycle   2  Pass 0  IDiag  1:
 RMSU=  8.45D-04    CP:  9.90D-01
 E= -282.902440537522     Delta-E=       -0.189732724431 Rises=F Damp=F
 DIIS: error= 9.85D-03 at cycle   2 NSaved=   2.
 NSaved= 2 IEnMin= 2 EnMin= -282.902440537522     IErMin= 2 ErrMin= 9.85D-03
 ErrMax= 9.85D-03  0.00D+00 EMaxC= 1.00D-01 BMatC= 8.98D-02 BMatP= 6.71D-01
 IDIUse=3 WtCom= 9.01D-01 WtEn= 9.85D-02
 Coeff-Com:  0.195D+00 0.805D+00
 Coeff-En:   0.000D+00 0.100D+01
 Coeff:      0.176D+00 0.824D+00
 Gap=     0.518 Goal=   None    Shift=    0.000
 RMSDP=5.16D-04 MaxDP=5.88D-02 DE=-1.90D-01 OVMax= 5.95D-02

 Cycle   3  Pass 0  IDiag  1:
 RMSU=  2.42D-04    CP:  9.87D-01  4.61D-01
 E= -282.954582558051     Delta-E=       -0.052142020529 Rises=F Damp=F
 DIIS: error= 4.31D-03 at cycle   3 NSaved=   3.
 NSaved= 3 IEnMin= 3 EnMin= -282.954582558051     IErMin= 3 ErrMin= 4.31D-03
 ErrMax= 4.31D-03  0.00D+00 EMaxC= 1.00D-01 BMatC= 1.30D-02 BMatP= 8.98D-02
 IDIUse=3 WtCom= 9.57D-01 WtEn= 4.31D-02
 Coeff-Com: -0.251D-01 0.247D+00 0.778D+00
 Coeff-En:   0.000D+00 0.000D+00 0.100D+01
 Coeff:     -0.240D-01 0.236D+00 0.787D+00
 Gap=     0.485 Goal=   None    Shift=    0.000
 RMSDP=5.98D-05 MaxDP=5.78D-03 DE=-5.21D-02 OVMax= 2.89D-02

 Cycle   4  Pass 0  IDiag  1:
 RMSU=  4.37D-05    CP:  9.85D-01  5.09D-01  9.95D-01
 E= -282.962780704745     Delta-E=       -0.008198146694 Rises=F Damp=F
 DIIS: error= 1.18D-03 at cycle   4 NSaved=   4.
 NSaved= 4 IEnMin= 4 EnMin= -282.962780704745     IErMin= 4 ErrMin= 1.18D-03
 ErrMax= 1.18D-03  0.00D+00 EMaxC= 1.00D-01 BMatC= 4.28D-04 BMatP= 1.30D-02
 IDIUse=3 WtCom= 9.88D-01 WtEn= 1.18D-02
 Coeff-Com: -0.112D-01 0.558D-01 0.244D+00 0.712D+00
 Coeff-En:   0.000D+00 0.000D+00 0.000D+00 0.100D+01
 Coeff:     -0.111D-01 0.551D-01 0.241D+00 0.715D+00
 Gap=     0.481 Goal=   None    Shift=    0.000
 RMSDP=1.81D-05 MaxDP=2.05D-03 DE=-8.20D-03 OVMax= 5.27D-03

 Cycle   5  Pass 0  IDiag  1:
 RMSU=  1.36D-05    CP:  9.85D-01  5.03D-01  1.04D+00  9.29D-01
 E= -282.963143598442     Delta-E=       -0.000362893697 Rises=F Damp=F
 DIIS: error= 4.19D-04 at cycle   5 NSaved=   5.
 NSaved= 5 IEnMin= 5 EnMin= -282.963143598442     IErMin= 5 ErrMin= 4.19D-04
 ErrMax= 4.19D-04  0.00D+00 EMaxC= 1.00D-01 BMatC= 3.04D-05 BMatP= 4.28D-04
 IDIUse=3 WtCom= 9.96D-01 WtEn= 4.19D-03
 Coeff-Com:  0.223D-02-0.237D-01-0.795D-01 0.310D-01 0.107D+01
 Coeff-En:   0.000D+00 0.000D+00 0.000D+00 0.000D+00 0.100D+01
 Coeff:      0.222D-02-0.236D-01-0.792D-01 0.309D-01 0.107D+01
 Gap=     0.482 Goal=   None    Shift=    0.000
 RMSDP=1.76D-05 MaxDP=2.18D-03 DE=-3.63D-04 OVMax= 3.87D-03

 Cycle   6  Pass 0  IDiag  1:
 RMSU=  4.73D-06    CP:  9.85D-01  4.88D-01  1.07D+00  1.07D+00  1.22D+00
 E= -282.963201163879     Delta-E=       -0.000057565437 Rises=F Damp=F
 DIIS: error= 9.61D-05 at cycle   6 NSaved=   6.
 NSaved= 6 IEnMin= 6 EnMin= -282.963201163879     IErMin= 6 ErrMin= 9.61D-05
 ErrMax= 9.61D-05  0.00D+00 EMaxC= 1.00D-01 BMatC= 4.33D-06 BMatP= 3.04D-05
 IDIUse=1 WtCom= 1.00D+00 WtEn= 0.00D+00
 Coeff-Com:  0.144D-02-0.101D-01-0.370D-01-0.758D-01 0.175D+00 0.946D+00
 Coeff:      0.144D-02-0.101D-01-0.370D-01-0.758D-01 0.175D+00 0.946D+00
 Gap=     0.482 Goal=   None    Shift=    0.000
 RMSDP=5.75D-06 MaxDP=5.78D-04 DE=-5.76D-05 OVMax= 1.15D-03

 Initial convergence to 1.0D-05 achieved.  Increase integral accuracy.
 Cycle   7  Pass 1  IDiag  1:
 E= -282.963207343823     Delta-E=       -0.000006179944 Rises=F Damp=F
 DIIS: error= 8.49D-05 at cycle   1 NSaved=   1.
 NSaved= 1 IEnMin= 1 EnMin= -282.963207343823     IErMin= 1 ErrMin= 8.49D-05
 ErrMax= 8.49D-05  0.00D+00 EMaxC= 1.00D-01 BMatC= 3.60D-06 BMatP= 3.60D-06
 IDIUse=1 WtCom= 1.00D+00 WtEn= 0.00D+00
 Coeff-Com:  0.100D+01
 Coeff:      0.100D+01
 Gap=     0.482 Goal=   None    Shift=    0.000
 RMSDP=5.75D-06 MaxDP=5.78D-04 DE=-6.18D-06 OVMax= 4.91D-04

 Cycle   8  Pass 1  IDiag  1:
 RMSU=  2.34D-05    CP:  1.00D+00
 E= -282.963209040158     Delta-E=       -0.000001696336 Rises=F Damp=F
 DIIS: error= 3.12D-05 at cycle   2 NSaved=   2.
 NSaved= 2 IEnMin= 2 EnMin= -282.963209040158     IErMin= 2 ErrMin= 3.12D-05
 ErrMax= 3.12D-05  0.00D+00 EMaxC= 1.00D-01 BMatC= 1.75D-07 BMatP= 3.60D-06
 IDIUse=1 WtCom= 1.00D+00 WtEn= 0.00D+00
 Coeff-Com:  0.798D-02 0.992D+00
 Coeff:      0.798D-02 0.992D+00
 Gap=     0.482 Goal=   None    Shift=    0.000
 RMSDP=1.12D-06 MaxDP=8.74D-05 DE=-1.70D-06 OVMax= 3.18D-04

 Cycle   9  Pass 1  IDiag  1:
 RMSU=  6.41D-07    CP:  1.00D+00  1.04D+00
 E= -282.963209408648     Delta-E=       -0.000000368490 Rises=F Damp=F
 DIIS: error= 1.38D-05 at cycle   3 NSaved=   3.
 NSaved= 3 IEnMin= 3 EnMin= -282.963209408648     IErMin= 3 ErrMin= 1.38D-05
 ErrMax= 1.38D-05  0.00D+00 EMaxC= 1.00D-01 BMatC= 7.38D-08 BMatP= 1.75D-07
 IDIUse=1 WtCom= 1.00D+00 WtEn= 0.00D+00
 Coeff-Com: -0.378D-01 0.246D+00 0.792D+00
 Coeff:     -0.378D-01 0.246D+00 0.792D+00
 Gap=     0.482 Goal=   None    Shift=    0.000
 RMSDP=3.16D-07 MaxDP=2.52D-05 DE=-3.68D-07 OVMax= 1.28D-04

 Cycle  10  Pass 1  IDiag  1:
 RMSU=  2.15D-07    CP:  1.00D+00  1.04D+00  1.32D+00
 E= -282.963209526974     Delta-E=       -0.000000118327 Rises=F Damp=F
 DIIS: error= 1.15D-05 at cycle   4 NSaved=   4.
 NSaved= 4 IEnMin= 4 EnMin= -282.963209526974     IErMin= 4 ErrMin= 1.15D-05
 ErrMax= 1.15D-05  0.00D+00 EMaxC= 1.00D-01 BMatC= 1.58D-08 BMatP= 7.38D-08
 IDIUse=1 WtCom= 1.00D+00 WtEn= 0.00D+00
 Coeff-Com:  0.365D-02-0.408D+00-0.235D+00 0.164D+01
 Coeff:      0.365D-02-0.408D+00-0.235D+00 0.164D+01
 Gap=     0.482 Goal=   None    Shift=    0.000
 RMSDP=3.88D-07 MaxDP=3.51D-05 DE=-1.18D-07 OVMax= 2.36D-04

 Cycle  11  Pass 1  IDiag  1:
 RMSU=  1.35D-07    CP:  1.00D+00  1.04D+00  1.78D+00  1.97D+00
 E= -282.963209593088     Delta-E=       -0.000000066114 Rises=F Damp=F
 DIIS: error= 9.03D-07 at cycle   5 NSaved=   5.
 NSaved= 5 IEnMin= 5 EnMin= -282.963209593088     IErMin= 5 ErrMin= 9.03D-07
 ErrMax= 9.03D-07  0.00D+00 EMaxC= 1.00D-01 BMatC= 1.00D-09 BMatP= 1.58D-08
 IDIUse=1 WtCom= 1.00D+00 WtEn= 0.00D+00
 Coeff-Com:  0.300D-02-0.158D+00-0.130D+00 0.576D+00 0.709D+00
 Coeff:      0.300D-02-0.158D+00-0.130D+00 0.576D+00 0.709D+00
 Gap=     0.482 Goal=   None    Shift=    0.000
 RMSDP=5.22D-08 MaxDP=6.42D-06 DE=-6.61D-08 OVMax= 1.59D-05

 Cycle  12  Pass 1  IDiag  1:
 RMSU=  3.20D-08    CP:  1.00D+00  1.04D+00  1.80D+00  2.09D+00  1.19D+00
 E= -282.963209594247     Delta-E=       -0.000000001159 Rises=F Damp=F
 DIIS: error= 3.59D-07 at cycle   6 NSaved=   6.
 NSaved= 6 IEnMin= 6 EnMin= -282.963209594247     IErMin= 6 ErrMin= 3.59D-07
 ErrMax= 3.59D-07  0.00D+00 EMaxC= 1.00D-01 BMatC= 5.10D-11 BMatP= 1.00D-09
 IDIUse=1 WtCom= 1.00D+00 WtEn= 0.00D+00
 Coeff-Com: -0.490D-03 0.446D-01 0.236D-01-0.157D+00-0.631D-01 0.115D+01
 Coeff:     -0.490D-03 0.446D-01 0.236D-01-0.157D+00-0.631D-01 0.115D+01
 Gap=     0.482 Goal=   None    Shift=    0.000
 RMSDP=2.98D-08 MaxDP=4.00D-06 DE=-1.16D-09 OVMax= 3.70D-06

 Cycle  13  Pass 1  IDiag  1:
 RMSU=  1.11D-08    CP:  1.00D+00  1.04D+00  1.78D+00  2.09D+00  1.28D+00
                    CP:  1.52D+00
 E= -282.963209594302     Delta-E=       -0.000000000055 Rises=F Damp=F
 DIIS: error= 1.61D-07 at cycle   7 NSaved=   7.
 NSaved= 7 IEnMin= 7 EnMin= -282.963209594302     IErMin= 7 ErrMin= 1.61D-07
 ErrMax= 1.61D-07  0.00D+00 EMaxC= 1.00D-01 BMatC= 1.41D-11 BMatP= 5.10D-11
 IDIUse=1 WtCom= 1.00D+00 WtEn= 0.00D+00
 Coeff-Com: -0.699D-03 0.419D-01 0.279D-01-0.149D+00-0.163D+00 0.323D+00
 Coeff-Com:  0.920D+00
 Coeff:     -0.699D-03 0.419D-01 0.279D-01-0.149D+00-0.163D+00 0.323D+00
 Coeff:      0.920D+00
 Gap=     0.482 Goal=   None    Shift=    0.000
 RMSDP=1.20D-08 MaxDP=1.70D-06 DE=-5.48D-11 OVMax= 1.38D-06

 Cycle  14  Pass 1  IDiag  1:
 RMSU=  3.38D-09    CP:  1.00D+00  1.04D+00  1.78D+00  2.09D+00  1.31D+00
                    CP:  1.79D+00  1.48D+00
 E= -282.963209594383     Delta-E=       -0.000000000081 Rises=F Damp=F
 DIIS: error= 2.65D-08 at cycle   8 NSaved=   8.
 NSaved= 8 IEnMin= 8 EnMin= -282.963209594383     IErMin= 8 ErrMin= 2.65D-08
 ErrMax= 2.65D-08  0.00D+00 EMaxC= 1.00D-01 BMatC= 4.23D-13 BMatP= 1.41D-11
 IDIUse=1 WtCom= 1.00D+00 WtEn= 0.00D+00
 Coeff-Com:  0.628D-04-0.487D-02-0.342D-02 0.188D-01 0.904D-02-0.950D-01
 Coeff-Com: -0.462D-01 0.112D+01
 Coeff:      0.628D-04-0.487D-02-0.342D-02 0.188D-01 0.904D-02-0.950D-01
 Coeff:     -0.462D-01 0.112D+01
 Gap=     0.482 Goal=   None    Shift=    0.000
 RMSDP=3.98D-09 MaxDP=3.12D-07 DE=-8.08D-11 OVMax= 3.80D-07

 SCF Done:  E(RHF) =  -282.963209594     A.U. after   14 cycles
            NFock= 14  Conv=0.40D-08     -V/T= 2.0010
 KE= 2.826763363698D+02 PE=-1.027418310232D+03 EE= 2.812408584385D+02
 Leave Link  502 at Mon Dec 26 21:32:26 2016, MaxMem=  8053063680 cpu:     22034.8
 (Enter /share/pub/jeff/software/g09/g09/l601.exe)
 Copying SCF densities to generalized density rwf, IOpCl= 0 IROHF=0.

 **********************************************************************

            Population analysis using the SCF density.

 **********************************************************************

 Orbital symmetries:
       Occupied  (A) (A) (A) (A) (A) (A) (A) (A) (A) (A) (A) (A)
                 (A) (A) (A) (A) (A) (A) (A) (A)
       Virtual   (A) (A) (A) (A) (A) (A) (A) (A) (A) (A) (A) (A)
                 (A) (A) (A) (A) (A) (A) (A) (A) (A) (A) (A) (A)
                 (A) (A) (A) (A) (A) (A) (A) (A) (A) (A) (A) (A)
                 (A) (A) (A) (A) (A) (A) (A) (A) (A) (A) (A) (A)
                 (A) (A) (A) (A) (A) (A) (A) (A) (A) (A) (A) (A)
                 (A) (A) (A) (A) (A) (A) (A) (A) (A) (A) (A) (A)
                 (A) (A) (A) (A) (A) (A) (A) (A) (A) (A) (A) (A)
                 (A) (A) (A) (A) (A) (A) (A) (A) (A) (A) (A) (A)
                 (A) (A) (A) (A) (A) (A) (A) (A) (A) (A) (A) (A)
                 (A) (A) (A) (A) (A) (A) (A) (A) (A) (A) (A) (A)
                 (A) (A) (A) (A) (A) (A) (A) (A) (A) (A) (A) (A)
                 (A) (A) (A) (A) (A) (A) (A) (A) (A) (A) (A) (A)
                 (A) (A) (A) (A) (A) (A) (A) (A) (A) (A) (A) (A)
                 (A) (A) (A) (A) (A) (A) (A) (A) (A) (A) (A) (A)
                 (A) (A) (A) (A) (A) (A) (A) (A) (A) (A) (A) (A)
                 (A) (A) (A) (A) (A) (A) (A) (A) (A) (A) (A) (A)
                 (A) (A) (A) (A) (A) (A) (A) (A) (A) (A) (A) (A)
                 (A) (A) (A) (A) (A) (A) (A) (A) (A) (A) (A) (A)
                 (A) (A) (A) (A) (A) (A) (A) (A) (A) (A) (A) (A)
                 (A) (A) (A) (A) (A) (A) (A) (A) (A) (A) (A) (A)
                 (A) (A) (A) (A) (A) (A) (A) (A) (A) (A) (A) (A)
                 (A) (A) (A) (A) (A) (A) (A) (A) (A) (A) (A) (A)
                 (A) (A) (A) (A) (A) (A) (A) (A) (A) (A) (A) (A)
                 (A) (A) (A) (A) (A) (A) (A) (A) (A) (A) (A) (A)
                 (A) (A) (A) (A) (A) (A) (A) (A) (A) (A) (A) (A)
                 (A) (A) (A) (A) (A) (A) (A) (A) (A) (A) (A) (A)
                 (A) (A) (A) (A) (A) (A) (A) (A) (A) (A) (A) (A)
                 (A) (A) (A) (A) (A) (A) (A) (A) (A) (A) (A) (A)
                 (A) (A) (A) (A) (A) (A) (A) (A) (A) (A) (A) (A)
                 (A) (A) (A) (A) (A) (A) (A) (A) (A) (A) (A) (A)
                 (A) (A) (A) (A) (A) (A) (A) (A) (A) (A) (A) (A)
                 (A) (A) (A) (A) (A) (A) (A) (A) (A) (A) (A) (A)
                 (A) (A) (A) (A) (A) (A) (A) (A) (A) (A) (A) (A)
                 (A) (A) (A) (A) (A) (A) (A) (A) (A) (A) (A) (A)
                 (A) (A) (A) (A) (A) (A) (A) (A) (A) (A) (A) (A)
                 (A) (A) (A) (A) (A) (A) (A) (A) (A) (A) (A) (A)
                 (A) (A) (A) (A) (A) (A) (A) (A) (A) (A) (A) (A)
                 (A) (A) (A) (A) (A) (A) (A) (A) (A) (A) (A) (A)
                 (A) (A) (A) (A) (A) (A) (A) (A) (A) (A) (A) (A)
                 (A) (A) (A) (A) (A) (A) (A) (A) (A) (A) (A) (A)
                 (A) (A) (A) (A) (A) (A) (A) (A) (A) (A) (A) (A)
                 (A) (A) (A) (A) (A) (A) (A) (A) (A) (A) (A) (A)
                 (A) (A) (A) (A) (A) (A) (A) (A) (A) (A) (A) (A)
                 (A) (A) (A) (A) (A) (A) (A) (A) (A) (A) (A) (A)
                 (A) (A) (A) (A) (A) (A) (A) (A) (A) (A) (A) (A)
                 (A) (A) (A) (A) (A) (A) (A) (A) (A) (A) (A) (A)
                 (A) (A) (A) (A) (A) (A) (A) (A) (A) (A) (A) (A)
                 (A) (A) (A) (A) (A) (A) (A) (A) (A) (A) (A) (A)
                 (A) (A) (A) (A) (A) (A) (A) (A) (A) (A) (A) (A)
                 (A) (A) (A) (A) (A) (A) (A) (A) (A) (A) (A) (A)
                 (A) (A) (A) (A) (A) (A) (A) (A) (A) (A) (A) (A)
                 (A) (A) (A) (A) (A) (A) (A) (A) (A) (A) (A) (A)
                 (A) (A) (A) (A) (A) (A) (A) (A) (A) (A) (A) (A)
                 (A) (A) (A) (A) (A) (A) (A) (A) (A) (A) (A) (A)
                 (A) (A) (A) (A) (A) (A) (A) (A) (A) (A) (A) (A)
                 (A) (A) (A) (A) (A) (A) (A) (A) (A) (A) (A) (A)
                 (A) (A) (A) (A) (A) (A) (A) (A) (A) (A) (A) (A)
                 (A) (A) (A) (A) (A) (A) (A) (A) (A) (A) (A) (A)
                 (A) (A) (A) (A) (A) (A) (A) (A) (A) (A) (A) (A)
                 (A) (A)
 The electronic state is 1-A.
 Alpha  occ. eigenvalues --  -20.61844 -20.54990 -15.55166 -11.39000 -11.28904
 Alpha  occ. eigenvalues --   -1.47107  -1.37541  -1.20094  -0.97739  -0.83641
 Alpha  occ. eigenvalues --   -0.74589  -0.68190  -0.67371  -0.65538  -0.60246
 Alpha  occ. eigenvalues --   -0.58445  -0.56452  -0.48996  -0.46075  -0.41083
 Alpha virt. eigenvalues --    0.07162   0.09303   0.11922   0.13627   0.15067
 Alpha virt. eigenvalues --    0.16895   0.18136   0.21193   0.22048   0.23611
 Alpha virt. eigenvalues --    0.25710   0.27772   0.30127   0.32674   0.34419
 Alpha virt. eigenvalues --    0.34584   0.37336   0.38127   0.38431   0.39200
 Alpha virt. eigenvalues --    0.40687   0.41766   0.43391   0.43786   0.46604
 Alpha virt. eigenvalues --    0.48198   0.48593   0.50528   0.52301   0.53512
 Alpha virt. eigenvalues --    0.54603   0.56328   0.58674   0.63218   0.64093
 Alpha virt. eigenvalues --    0.64848   0.66481   0.69208   0.71526   0.73268
 Alpha virt. eigenvalues --    0.74078   0.75136   0.77386   0.78668   0.79558
 Alpha virt. eigenvalues --    0.82101   0.83372   0.85131   0.85605   0.87162
 Alpha virt. eigenvalues --    0.89082   0.89604   0.91625   0.93587   0.94944
 Alpha virt. eigenvalues --    0.96716   0.98024   0.99674   1.01563   1.03322
 Alpha virt. eigenvalues --    1.03655   1.04446   1.06820   1.09670   1.11024
 Alpha virt. eigenvalues --    1.12020   1.13681   1.18413   1.20392   1.21601
 Alpha virt. eigenvalues --    1.23786   1.25635   1.26697   1.29195   1.29660
 Alpha virt. eigenvalues --    1.31405   1.32878   1.37889   1.38136   1.40255
 Alpha virt. eigenvalues --    1.41021   1.43774   1.47536   1.48288   1.51169
 Alpha virt. eigenvalues --    1.54084   1.56325   1.56795   1.57639   1.58950
 Alpha virt. eigenvalues --    1.59978   1.63216   1.64746   1.65835   1.67810
 Alpha virt. eigenvalues --    1.70029   1.71753   1.75366   1.77814   1.78614
 Alpha virt. eigenvalues --    1.80517   1.82497   1.83752   1.85041   1.88112
 Alpha virt. eigenvalues --    1.89211   1.90267   1.91389   1.93071   1.94817
 Alpha virt. eigenvalues --    1.97050   1.98476   1.99708   2.00953   2.03387
 Alpha virt. eigenvalues --    2.05915   2.07313   2.07751   2.08828   2.11852
 Alpha virt. eigenvalues --    2.13418   2.13920   2.14483   2.16273   2.17663
 Alpha virt. eigenvalues --    2.19331   2.21247   2.24016   2.25111   2.28053
 Alpha virt. eigenvalues --    2.29164   2.30511   2.33154   2.35396   2.36269
 Alpha virt. eigenvalues --    2.40765   2.41055   2.42651   2.44757   2.46446
 Alpha virt. eigenvalues --    2.48712   2.49453   2.51256   2.52227   2.57089
 Alpha virt. eigenvalues --    2.58869   2.61913   2.63448   2.67184   2.67767
 Alpha virt. eigenvalues --    2.70524   2.72844   2.76420   2.76571   2.78020
 Alpha virt. eigenvalues --    2.81178   2.83904   2.86770   2.88893   2.90282
 Alpha virt. eigenvalues --    2.91871   2.96031   2.97666   2.99523   3.01366
 Alpha virt. eigenvalues --    3.02142   3.05788   3.08462   3.09910   3.14765
 Alpha virt. eigenvalues --    3.16020   3.18556   3.19899   3.21726   3.23639
 Alpha virt. eigenvalues --    3.24775   3.26861   3.29915   3.31409   3.34686
 Alpha virt. eigenvalues --    3.36148   3.38108   3.39980   3.41748   3.44532
 Alpha virt. eigenvalues --    3.47548   3.52339   3.53628   3.54627   3.56145
 Alpha virt. eigenvalues --    3.58847   3.61344   3.61849   3.66629   3.70459
 Alpha virt. eigenvalues --    3.71884   3.72809   3.73974   3.75569   3.78459
 Alpha virt. eigenvalues --    3.81433   3.83762   3.85102   3.87842   3.90457
 Alpha virt. eigenvalues --    3.91812   3.94969   3.97471   4.01349   4.03756
 Alpha virt. eigenvalues --    4.04695   4.07482   4.07867   4.10509   4.12970
 Alpha virt. eigenvalues --    4.15120   4.17327   4.18138   4.19273   4.22985
 Alpha virt. eigenvalues --    4.25891   4.27000   4.28059   4.31230   4.32128
 Alpha virt. eigenvalues --    4.36803   4.39528   4.40026   4.41274   4.43394
 Alpha virt. eigenvalues --    4.44582   4.47366   4.48529   4.49303   4.53201
 Alpha virt. eigenvalues --    4.55605   4.60732   4.62980   4.64730   4.66862
 Alpha virt. eigenvalues --    4.67370   4.68046   4.68820   4.70861   4.74151
 Alpha virt. eigenvalues --    4.75049   4.79944   4.80926   4.82272   4.85342
 Alpha virt. eigenvalues --    4.87147   4.88303   4.91347   4.94719   4.96831
 Alpha virt. eigenvalues --    4.99433   4.99543   5.01986   5.03981   5.05443
 Alpha virt. eigenvalues --    5.08262   5.10167   5.10749   5.14186   5.19947
 Alpha virt. eigenvalues --    5.21568   5.22600   5.23966   5.27222   5.28049
 Alpha virt. eigenvalues --    5.31563   5.32123   5.33086   5.37166   5.39182
 Alpha virt. eigenvalues --    5.40561   5.44642   5.47717   5.49712   5.52421
 Alpha virt. eigenvalues --    5.52850   5.56309   5.57709   5.58782   5.63365
 Alpha virt. eigenvalues --    5.65928   5.67973   5.69136   5.72524   5.74060
 Alpha virt. eigenvalues --    5.75160   5.77256   5.79072   5.81634   5.86122
 Alpha virt. eigenvalues --    5.86928   5.89686   5.91881   5.95051   5.97674
 Alpha virt. eigenvalues --    6.00603   6.02346   6.07678   6.08112   6.10510
 Alpha virt. eigenvalues --    6.15765   6.18150   6.19440   6.21559   6.24726
 Alpha virt. eigenvalues --    6.31205   6.33583   6.35465   6.37619   6.40648
 Alpha virt. eigenvalues --    6.42558   6.45217   6.48921   6.55795   6.57159
 Alpha virt. eigenvalues --    6.58689   6.63681   6.66274   6.69997   6.70895
 Alpha virt. eigenvalues --    6.73791   6.77700   6.78919   6.82517   6.83605
 Alpha virt. eigenvalues --    6.87449   6.88997   6.92912   6.98147   7.00136
 Alpha virt. eigenvalues --    7.00990   7.05792   7.07731   7.10473   7.14169
 Alpha virt. eigenvalues --    7.15442   7.20857   7.24566   7.27267   7.28597
 Alpha virt. eigenvalues --    7.32030   7.33745   7.35313   7.36659   7.40037
 Alpha virt. eigenvalues --    7.44505   7.47520   7.52737   7.56981   7.58490
 Alpha virt. eigenvalues --    7.60483   7.63871   7.66134   7.70361   7.71369
 Alpha virt. eigenvalues --    7.72009   7.80531   7.80886   7.83748   7.86544
 Alpha virt. eigenvalues --    7.88083   7.91243   7.93085   7.97879   7.99732
 Alpha virt. eigenvalues --    8.06418   8.06865   8.10245   8.14596   8.18764
 Alpha virt. eigenvalues --    8.23365   8.26682   8.30026   8.35584   8.39698
 Alpha virt. eigenvalues --    8.46861   8.48279   8.53218   8.57582   8.62588
 Alpha virt. eigenvalues --    8.65413   8.68797   8.70194   8.78102   8.82802
 Alpha virt. eigenvalues --    8.89406   8.92624   8.93749   9.01111   9.06393
 Alpha virt. eigenvalues --    9.07268   9.09919   9.17913   9.23827   9.29606
 Alpha virt. eigenvalues --    9.36631   9.39274   9.44690   9.50736   9.52488
 Alpha virt. eigenvalues --    9.56884   9.63199   9.66628   9.74277   9.76192
 Alpha virt. eigenvalues --    9.78763   9.85434   9.88758   9.91886   9.94643
 Alpha virt. eigenvalues --    9.98052  10.07920  10.12761  10.13925  10.25366
 Alpha virt. eigenvalues --   10.30405  10.32867  10.40643  10.42080  10.44184
 Alpha virt. eigenvalues --   10.44854  10.50206  10.57515  10.61019  10.61286
 Alpha virt. eigenvalues --   10.67593  10.69723  10.78053  10.79799  10.82491
 Alpha virt. eigenvalues --   10.86253  10.89670  10.94325  10.99101  11.03255
 Alpha virt. eigenvalues --   11.04833  11.13161  11.22467  11.23973  11.29937
 Alpha virt. eigenvalues --   11.33414  11.40113  11.43300  11.46293  11.49633
 Alpha virt. eigenvalues --   11.51567  11.54262  11.57324  11.63027  11.70869
 Alpha virt. eigenvalues --   11.73804  11.74446  11.76639  11.84159  11.87013
 Alpha virt. eigenvalues --   11.91511  11.97552  12.02583  12.04741  12.16608
 Alpha virt. eigenvalues --   12.23156  12.31007  12.37899  12.43754  12.45881
 Alpha virt. eigenvalues --   12.48209  12.51461  12.56873  12.61461  12.66591
 Alpha virt. eigenvalues --   12.68240  12.69619  12.71858  12.73889  12.74936
 Alpha virt. eigenvalues --   12.76892  12.77894  12.78450  12.81787  12.83150
 Alpha virt. eigenvalues --   12.84882  12.86810  12.88246  12.89771  12.91905
 Alpha virt. eigenvalues --   12.94989  12.96870  12.97792  12.99843  13.03261
 Alpha virt. eigenvalues --   13.04422  13.04883  13.06474  13.09589  13.13080
 Alpha virt. eigenvalues --   13.16227  13.18433  13.20874  13.26284  13.29170
 Alpha virt. eigenvalues --   13.32911  13.34684  13.36475  13.41031  13.44807
 Alpha virt. eigenvalues --   13.46362  13.52610  13.56337  13.58917  13.59888
 Alpha virt. eigenvalues --   13.64010  13.65839  13.67968  13.68689  13.71896
 Alpha virt. eigenvalues --   13.73879  13.75457  13.80688  13.81374  13.83812
 Alpha virt. eigenvalues --   13.86694  13.87352  13.89282  13.91231  13.94498
 Alpha virt. eigenvalues --   13.95181  13.98696  14.03208  14.05943  14.09893
 Alpha virt. eigenvalues --   14.13584  14.16054  14.17086  14.19558  14.22185
 Alpha virt. eigenvalues --   14.25744  14.27177  14.27763  14.29604  14.30124
 Alpha virt. eigenvalues --   14.32309  14.34743  14.36045  14.39151  14.39847
 Alpha virt. eigenvalues --   14.42185  14.43670  14.44046  14.46860  14.48537
 Alpha virt. eigenvalues --   14.50100  14.55269  14.56605  14.58461  14.62638
 Alpha virt. eigenvalues --   14.66326  14.70274  14.71149  14.72492  14.77667
 Alpha virt. eigenvalues --   14.82585  14.86734  14.89482  14.92526  14.94035
 Alpha virt. eigenvalues --   15.00407  15.03149  15.04134  15.09931  15.14486
 Alpha virt. eigenvalues --   15.16033  15.18879  15.23899  15.24448  15.26887
 Alpha virt. eigenvalues --   15.38084  15.42374  15.44778  15.48006  15.51339
 Alpha virt. eigenvalues --   15.58991  15.65433  15.66922  15.71562  15.75688
 Alpha virt. eigenvalues --   15.86012  15.95497  15.96645  15.98833  16.00998
 Alpha virt. eigenvalues --   16.03088  16.03972  16.18057  16.21619  16.28184
 Alpha virt. eigenvalues --   16.29262  16.31537  16.37886  16.44109  16.45508
 Alpha virt. eigenvalues --   16.46330  16.64875  16.71625  16.74264  16.76763
 Alpha virt. eigenvalues --   16.79829  16.81736  16.84311  16.87180  16.93711
 Alpha virt. eigenvalues --   16.96200  16.96551  17.04046  17.05939  17.12600
 Alpha virt. eigenvalues --   17.16966  17.28931  17.37448  17.46032  17.54194
 Alpha virt. eigenvalues --   17.62539  17.65942  17.66441  17.78541  17.83941
 Alpha virt. eigenvalues --   17.86042  17.90369  17.91445  17.98840  18.00347
 Alpha virt. eigenvalues --   18.04921  18.11355  18.12001  18.28096  18.31024
 Alpha virt. eigenvalues --   18.34729  18.40593  18.41652  18.47965  18.59210
 Alpha virt. eigenvalues --   18.65538  18.71708  18.74471  18.82152  18.83441
 Alpha virt. eigenvalues --   18.87696  18.89378  18.94614  19.00379  19.05477
 Alpha virt. eigenvalues --   19.10908  19.14100  19.19012  19.23772  19.30489
 Alpha virt. eigenvalues --   19.34857  19.40997  19.47053  19.51170  19.54870
 Alpha virt. eigenvalues --   19.57771  19.60464  19.67182  19.82104  19.83242
 Alpha virt. eigenvalues --   19.89342  19.91462  20.06112  20.23005  20.31664
 Alpha virt. eigenvalues --   20.35899  20.66969  20.86056  20.93298  20.96304
 Alpha virt. eigenvalues --   21.05139  21.14264  21.16110  21.29458  21.33466
 Alpha virt. eigenvalues --   21.49909  21.66481  21.75137  22.08264  22.36424
 Alpha virt. eigenvalues --   22.36944  22.50816  22.65902  23.03148  23.06760
 Alpha virt. eigenvalues --   23.19371  23.48341  23.48788  23.76378  23.80273
 Alpha virt. eigenvalues --   23.85775  24.13517  24.35899  25.51498  26.15263
 Alpha virt. eigenvalues --   40.78915  42.46967  53.67020  64.20031  65.16127
          Condensed to atoms (all electrons):
               1          2          3          4          5          6
     1  C    4.041938   0.429199   0.716481  -0.036747   0.414391  -0.055685
     2  O    0.429199   7.822640  -0.070476   0.309941  -0.081539   0.004513
     3  O    0.716481  -0.070476   7.882294   0.006263  -0.075367  -0.011101
     4  H   -0.036747   0.309941   0.006263   0.420620  -0.008657   0.000633
     5  C    0.414391  -0.081539  -0.075367  -0.008657   4.602941   0.357435
     6  N   -0.055685   0.004513  -0.011101   0.000633   0.357435   6.501732
     7  H    0.000960  -0.000829  -0.002845   0.001041   0.434570  -0.136948
     8  H   -0.040753  -0.003990   0.001721   0.000064   0.330493   0.004087
     9  H    0.003841  -0.000419   0.000316  -0.000070  -0.029047   0.424604
    10  H   -0.009852   0.000877   0.014789  -0.000077  -0.023946   0.416464
               7          8          9         10
     1  C    0.000960  -0.040753   0.003841  -0.009852
     2  O   -0.000829  -0.003990  -0.000419   0.000877
     3  O   -0.002845   0.001721   0.000316   0.014789
     4  H    0.001041   0.000064  -0.000070  -0.000077
     5  C    0.434570   0.330493  -0.029047  -0.023946
     6  N   -0.136948   0.004087   0.424604   0.416464
     7  H    0.837227  -0.138473  -0.005730   0.008679
     8  H   -0.138473   0.838765  -0.001387  -0.000987
     9  H   -0.005730  -0.001387   0.449724  -0.035063
    10  H    0.008679  -0.000987  -0.035063   0.379364
 Mulliken charges:
               1
     1  C    0.536227
     2  O   -0.409916
     3  O   -0.462076
     4  H    0.306987
     5  C    0.078725
     6  N   -0.505735
     7  H    0.002346
     8  H    0.010460
     9  H    0.193231
    10  H    0.249751
 Sum of Mulliken charges =  -0.00000
 Mulliken charges with hydrogens summed into heavy atoms:
               1
     1  C    0.536227
     2  O   -0.102929
     3  O   -0.462076
     5  C    0.091532
     6  N   -0.062753
 Electronic spatial extent (au):  <R**2>=            414.6407
 Charge=             -0.0000 electrons
 Dipole moment (field-independent basis, Debye):
    X=             -1.2899    Y=             -4.1582    Z=              1.2827  Tot=              4.5387
 Quadrupole moment (field-independent basis, Debye-Ang):
   XX=            -31.2588   YY=            -28.6009   ZZ=            -30.2327
   XY=             -3.5776   XZ=             -3.5527   YZ=              0.0300
 Traceless Quadrupole moment (field-independent basis, Debye-Ang):
   XX=             -1.2280   YY=              1.4299   ZZ=             -0.2019
   XY=             -3.5776   XZ=             -3.5527   YZ=              0.0300
 Octapole moment (field-independent basis, Debye-Ang**2):
  XXX=             -6.9444  YYY=            -10.3717  ZZZ=              1.7686  XYY=              2.1805
  XXY=             -3.9501  XXZ=              8.3836  XZZ=              3.6858  YZZ=             -0.6310
  YYZ=             -0.5419  XYZ=              0.6166
 Hexadecapole moment (field-independent basis, Debye-Ang**3):
 XXXX=           -313.1239 YYYY=           -135.6498 ZZZZ=            -36.7333 XXXY=             -6.4659
 XXXZ=            -22.6580 YYYX=            -19.0700 YYYZ=              1.6616 ZZZX=             -4.3132
 ZZZY=             -0.1232 XXYY=            -64.6181 XXZZ=            -65.7875 YYZZ=            -28.5211
 XXYZ=             -0.5391 YYXZ=             -1.6431 ZZXY=              0.3347
 N-N= 1.805379058292D+02 E-N=-1.027418309342D+03  KE= 2.826763363698D+02
 No NMR shielding tensors so no spin-rotation constants.
 Leave Link  601 at Mon Dec 26 21:32:27 2016, MaxMem=  8053063680 cpu:        25.1
 (Enter /share/pub/jeff/software/g09/g09/l9999.exe)
 1\1\GINC-R01N06\SP\RHF\CC-pV5Z\C2H5N1O2\JIANGZHONGMING\26-Dec-2016\0\\
 #P HF cc-pV5Z\\VIII_SP\\0,1\C\O,1,1.350639199\O,1,1.196528699,2,120.39
 32146\H,2,0.961654864,1,110.5740242,3,-178.19299,0\C,1,1.514064823,3,1
 24.0964059,2,178.4170875,0\N,5,1.446363011,1,110.3514816,3,14.5342408,
 0\H,5,1.096841522,1,106.104928,3,-109.3302257,0\H,5,1.093775389,1,108.
 591649,3,135.7513316,0\H,6,1.008066405,5,112.0878145,1,-144.9571968,0\
 H,6,1.012597049,5,109.6684359,1,-23.85712294,0\\Version=ES64L-G09RevE.
 01\State=1-A\HF=-282.9632096\RMSD=3.978e-09\Dipole=-1.6793514,0.516249
 6,0.3190994\Quadrupole=-1.6302887,-0.3466149,1.9769036,-1.3453827,-2.2
 07184,-2.2406308\PG=C01 [X(C2H5N1O2)]\\@


 AN AIRPLANE IS A COLLECTION OF SPARE PARTS
 FLYING IN CLOSE FORMATION.
 Job cpu time:       0 days  6 hours  9 minutes 42.6 seconds.
 File lengths (MBytes):  RWF=    592 Int=      0 D2E=      0 Chk=     32 Scr=      8
 Normal termination of Gaussian 09 at Mon Dec 26 21:32:27 2016.
