 Entering Gaussian System, Link 0=g16
 Input=gtt_Best_geom_MP2_jun_cc-pVQZ.gjf
 Output=gtt_Best_geom_MP2_jun_cc-pVQZ.log
 Initial command:
 /data2/software/Gaussian/g16_from_xuruiqin/g16/l1.exe "/home/shuchong/scratch/Gau-47312.inp" -scrdir="/home/shuchong/scratch/"
 Entering Link 1 = /data2/software/Gaussian/g16_from_xuruiqin/g16/l1.exe PID=     47313.
  
 Copyright (c) 1988-2019, Gaussian, Inc.  All Rights Reserved.
  
 This is part of the Gaussian(R) 16 program.  It is based on
 the Gaussian(R) 09 system (copyright 2009, Gaussian, Inc.),
 the Gaussian(R) 03 system (copyright 2003, Gaussian, Inc.),
 the Gaussian(R) 98 system (copyright 1998, Gaussian, Inc.),
 the Gaussian(R) 94 system (copyright 1995, Gaussian, Inc.),
 the Gaussian 92(TM) system (copyright 1992, Gaussian, Inc.),
 the Gaussian 90(TM) system (copyright 1990, Gaussian, Inc.),
 the Gaussian 88(TM) system (copyright 1988, Gaussian, Inc.),
 the Gaussian 86(TM) system (copyright 1986, Carnegie Mellon
 University), and the Gaussian 82(TM) system (copyright 1983,
 Carnegie Mellon University). Gaussian is a federally registered
 trademark of Gaussian, Inc.
  
 This software contains proprietary and confidential information,
 including trade secrets, belonging to Gaussian, Inc.
  
 This software is provided under written license and may be
 used, copied, transmitted, or stored only in accord with that
 written license.
  
 The following legend is applicable only to US Government
 contracts under FAR:
  
                    RESTRICTED RIGHTS LEGEND
  
 Use, reproduction and disclosure by the US Government is
 subject to restrictions as set forth in subparagraphs (a)
 and (c) of the Commercial Computer Software - Restricted
 Rights clause in FAR 52.227-19.
  
 Gaussian, Inc.
 340 Quinnipiac St., Bldg. 40, Wallingford CT 06492
  
  
 ---------------------------------------------------------------
 Warning -- This program may not be used in any manner that
 competes with the business of Gaussian, Inc. or will provide
 assistance to any competitor of Gaussian, Inc.  The licensee
 of this program is prohibited from giving any competitor of
 Gaussian, Inc. access to this program.  By using this program,
 the user acknowledges that Gaussian, Inc. is engaged in the
 business of creating and licensing software in the field of
 computational chemistry and represents and warrants to the
 licensee that it is not a competitor of Gaussian, Inc. and that
 it will not use this program in any manner prohibited above.
 ---------------------------------------------------------------
  

 Cite this work as:
 Gaussian 16, Revision C.01,
 M. J. Frisch, G. W. Trucks, H. B. Schlegel, G. E. Scuseria, 
 M. A. Robb, J. R. Cheeseman, G. Scalmani, V. Barone, 
 G. A. Petersson, H. Nakatsuji, X. Li, M. Caricato, A. V. Marenich, 
 J. Bloino, B. G. Janesko, R. Gomperts, B. Mennucci, H. P. Hratchian, 
 J. V. Ortiz, A. F. Izmaylov, J. L. Sonnenberg, D. Williams-Young, 
 F. Ding, F. Lipparini, F. Egidi, J. Goings, B. Peng, A. Petrone, 
 T. Henderson, D. Ranasinghe, V. G. Zakrzewski, J. Gao, N. Rega, 
 G. Zheng, W. Liang, M. Hada, M. Ehara, K. Toyota, R. Fukuda, 
 J. Hasegawa, M. Ishida, T. Nakajima, Y. Honda, O. Kitao, H. Nakai, 
 T. Vreven, K. Throssell, J. A. Montgomery, Jr., J. E. Peralta, 
 F. Ogliaro, M. J. Bearpark, J. J. Heyd, E. N. Brothers, K. N. Kudin, 
 V. N. Staroverov, T. A. Keith, R. Kobayashi, J. Normand, 
 K. Raghavachari, A. P. Rendell, J. C. Burant, S. S. Iyengar, 
 J. Tomasi, M. Cossi, J. M. Millam, M. Klene, C. Adamo, R. Cammi, 
 J. W. Ochterski, R. L. Martin, K. Morokuma, O. Farkas, 
 J. B. Foresman, and D. J. Fox, Gaussian, Inc., Wallingford CT, 2019.
 
 ******************************************
 Gaussian 16:  ES64L-G16RevC.01  3-Jul-2019
                15-Jan-2021 
 ******************************************
 %chk=gtt_Best_geom_MP2_jun_cc-pVQZ.chk
 %nprocshared=28
 Will use up to   28 processors via shared memory.
 %mem=100GB
 ------------------
 #p mp2/jun-cc-pvqz
 ------------------
 1/38=1,172=1/1;
 2/12=2,17=6,18=5,40=1/2;
 3/5=16,6=2,7=60,11=9,25=1,30=1/1,2,3;
 4//1;
 5/5=2,38=5/2;
 8/10=1/1;
 9/16=-3/6;
 6/7=2,8=2,9=2,10=2/1;
 99/5=1,9=1/99;
 Leave Link    1 at Fri Jan 15 17:43:25 2021, MaxMem= 13421772800 cpu:               0.6 elap:               0.0
 (Enter /data2/software/Gaussian/g16_from_xuruiqin/g16/l101.exe)
 --------------------------
 start best geom PCCP paper
 --------------------------
 Symbolic Z-matrix:
 Charge =  0 Multiplicity = 1
 C
 O                    1    B1
 O                    1    B2       2    A1
 H                    2    B3       1    A2       3    D1       0
 C                    1    B4       3    A3       2    D2       0
 N                    5    B5       1    A4       3    D3       0
 H                    5    B6       1    A5       3    D4       0
 H                    5    B7       1    A6       3    D5       0
 H                    6    B8       5    A7       1    D6       0
 H                    6    B9       5    A8       1    D7       0
       Variables:
  B1                    1.34608                  
  B2                    1.20274                  
  B3                    0.96513                  
  B4                    1.50353                  
  B5                    1.44879                  
  B6                    1.09682                  
  B7                    1.08963                  
  B8                    1.00859                  
  B9                    1.01187                  
  A1                  123.21263                  
  A2                  106.9601                   
  A3                  125.17128                  
  A4                  110.05161                  
  A5                  105.6396                   
  A6                  108.30581                  
  A7                  111.64684                  
  A8                  110.28053                  
  D1                    1.12063                  
  D2                  178.03326                  
  D3                   18.04528                  
  D4                 -106.18775                  
  D5                  139.44601                  
  D6                 -155.36007                  
  D7                  -34.31555                  
 
 ITRead=  0  0  0  0  0  0  0  0  0  0
 MicOpt= -1 -1 -1 -1 -1 -1 -1 -1 -1 -1
 NAtoms=     10 NQM=       10 NQMF=       0 NMMI=      0 NMMIF=      0
                NMic=       0 NMicF=      0.
                    Isotopes and Nuclear Properties:
 (Nuclear quadrupole moments (NQMom) in fm**2, nuclear magnetic moments (NMagM)
  in nuclear magnetons)

  Atom         1           2           3           4           5           6           7           8           9          10
 IAtWgt=          12          16          16           1          12          14           1           1           1           1
 AtmWgt=  12.0000000  15.9949146  15.9949146   1.0078250  12.0000000  14.0030740   1.0078250   1.0078250   1.0078250   1.0078250
 NucSpn=           0           0           0           1           0           2           1           1           1           1
 AtZEff=  -0.0000000  -0.0000000  -0.0000000  -0.0000000  -0.0000000  -0.0000000  -0.0000000  -0.0000000  -0.0000000  -0.0000000
 NQMom=    0.0000000   0.0000000   0.0000000   0.0000000   0.0000000   2.0440000   0.0000000   0.0000000   0.0000000   0.0000000
 NMagM=    0.0000000   0.0000000   0.0000000   2.7928460   0.0000000   0.4037610   2.7928460   2.7928460   2.7928460   2.7928460
 AtZNuc=   6.0000000   8.0000000   8.0000000   1.0000000   6.0000000   7.0000000   1.0000000   1.0000000   1.0000000   1.0000000
 Leave Link  101 at Fri Jan 15 17:43:25 2021, MaxMem= 13421772800 cpu:               2.4 elap:               0.1
 (Enter /data2/software/Gaussian/g16_from_xuruiqin/g16/l202.exe)
                          Input orientation:                          
 ---------------------------------------------------------------------
 Center     Atomic      Atomic             Coordinates (Angstroms)
 Number     Number       Type             X           Y           Z
 ---------------------------------------------------------------------
      1          6           0        0.000000    0.000000    0.000000
      2          8           0        0.000000    0.000000    1.346080
      3          8           0        1.006265    0.000000   -0.658798
      4          1           0        0.922978    0.018055    1.627614
      5          6           0       -1.397395    0.042180   -0.553273
      6          7           0       -1.390055   -0.339641   -1.950825
      7          1           0       -1.761669    1.058393   -0.359291
      8          1           0       -2.017816   -0.635948    0.031974
      9          1           0       -2.181188    0.043508   -2.445353
     10          1           0       -0.540559   -0.019158   -2.397512
 ---------------------------------------------------------------------
                    Distance matrix (angstroms):
                    1          2          3          4          5
     1  C    0.000000
     2  O    1.346080   0.000000
     3  O    1.202740   2.243235   0.000000
     4  H    1.871187   0.965130   2.288000   0.000000
     5  C    1.503530   2.358396   2.406344   3.184491   0.000000
     6  N    2.419365   3.594049   2.743544   4.275897   1.448790
     7  H    2.086328   2.670574   2.978483   3.498203   1.096820
     8  H    2.115900   2.490560   3.166490   3.409114   1.089630
     9  H    3.277076   4.374293   3.654248   5.121089   2.047999
    10  H    2.457770   3.782466   2.327263   4.283102   2.034489
                    6          7          8          9         10
     6  N    0.000000
     7  H    2.150715   0.000000
     8  H    2.100803   1.757695   0.000000
     9  H    1.008590   2.357465   2.574004   0.000000
    10  H    1.011870   2.608940   2.909487   1.642523   0.000000
 Stoichiometry    C2H5NO2
 Framework group  C1[X(C2H5NO2)]
 Deg. of freedom    24
 Full point group                 C1      NOp   1
 Largest Abelian subgroup         C1      NOp   1
 Largest concise Abelian subgroup C1      NOp   1
                         Standard orientation:                         
 ---------------------------------------------------------------------
 Center     Atomic      Atomic             Coordinates (Angstroms)
 Number     Number       Type             X           Y           Z
 ---------------------------------------------------------------------
      1          6           0        0.533710    0.102893    0.014867
      2          8           0        1.632185   -0.670799   -0.066880
      3          8           0        0.575034    1.304539    0.045254
      4          1           0        2.393950   -0.078239   -0.074783
      5          6           0       -0.719436   -0.723120    0.103930
      6          7           0       -1.876755    0.096522   -0.192365
      7          1           0       -0.714656   -1.160119    1.109923
      8          1           0       -0.636201   -1.548521   -0.602525
      9          1           0       -2.714348   -0.276671    0.227657
     10          1           0       -1.734852    1.039339    0.146516
 ---------------------------------------------------------------------
 Rotational constants (GHZ):          10.4739593           4.0016078           2.9777418
 Leave Link  202 at Fri Jan 15 17:43:25 2021, MaxMem= 13421772800 cpu:               0.2 elap:               0.0
 (Enter /data2/software/Gaussian/g16_from_xuruiqin/g16/l301.exe)
 Standard basis: Jun-CC-pVQZ (5D, 7F)
 Ernie: Thresh=  0.10000D-02 Tol=  0.10000D-05 Strict=F.
 Ernie:  15 primitive shells out of 245 were deleted.
 There are   625 symmetry adapted cartesian basis functions of A   symmetry.
 There are   505 symmetry adapted basis functions of A   symmetry.
   505 basis functions,   730 primitive gaussians,   625 cartesian basis functions
    20 alpha electrons       20 beta electrons
       nuclear repulsion energy       180.5543247289 Hartrees.
 IExCor=    0 DFT=F Ex=HF Corr=None ExCW=0 ScaHFX=  1.000000
 ScaDFX=  1.000000  1.000000  1.000000  1.000000 ScalE2=  1.000000  1.000000
 IRadAn=      5 IRanWt=     -1 IRanGd=            0 ICorTp=0 IEmpDi=  4
 NAtoms=   10 NActive=   10 NUniq=   10 SFac= 1.00D+00 NAtFMM=   60 NAOKFM=F Big=F
 Integral buffers will be    131072 words long.
 Raffenetti 1 integral format.
 Two-electron integral symmetry is turned on.
 Leave Link  301 at Fri Jan 15 17:43:25 2021, MaxMem= 13421772800 cpu:               1.1 elap:               0.1
 (Enter /data2/software/Gaussian/g16_from_xuruiqin/g16/l302.exe)
 NPDir=0 NMtPBC=     1 NCelOv=     1 NCel=       1 NClECP=     1 NCelD=      1
         NCelK=      1 NCelE2=     1 NClLst=     1 CellRange=     0.0.
 One-electron integrals computed using PRISM.
 One-electron integral symmetry used in STVInt
 NBasis=   505 RedAO= T EigKep=  7.58D-06  NBF=   505
 NBsUse=   505 1.00D-06 EigRej= -1.00D+00 NBFU=   505
 Leave Link  302 at Fri Jan 15 17:43:26 2021, MaxMem= 13421772800 cpu:              15.9 elap:               0.6
 (Enter /data2/software/Gaussian/g16_from_xuruiqin/g16/l303.exe)
 DipDrv:  MaxL=1.
 Leave Link  303 at Fri Jan 15 17:43:26 2021, MaxMem= 13421772800 cpu:               1.5 elap:               0.1
 (Enter /data2/software/Gaussian/g16_from_xuruiqin/g16/l401.exe)
 ExpMin= 3.22D-02 ExpMax= 6.14D+04 ExpMxC= 5.91D+02 IAcc=3 IRadAn=         5 AccDes= 0.00D+00
 Harris functional with IExCor=  205 and IRadAn=       5 diagonalized for initial guess.
 HarFok:  IExCor=  205 AccDes= 0.00D+00 IRadAn=         5 IDoV= 1 UseB2=F ITyADJ=14
 ICtDFT=  3500011 ScaDFX=  1.000000  1.000000  1.000000  1.000000
 FoFCou: FMM=F IPFlag=           0 FMFlag=      100000 FMFlg1=           0
         NFxFlg=           0 DoJE=T BraDBF=F KetDBF=T FulRan=T
         wScrn=  0.000000 ICntrl=       500 IOpCl=  0 I1Cent=   200000004 NGrid=           0
         NMat0=    1 NMatS0=      1 NMatT0=    0 NMatD0=    1 NMtDS0=    0 NMtDT0=    0
 Petite list used in FoFCou.
 Harris En= -283.249024977302    
 JPrj=0 DoOrth=F DoCkMO=F.
 Leave Link  401 at Fri Jan 15 17:43:26 2021, MaxMem= 13421772800 cpu:              22.5 elap:               0.8
 (Enter /data2/software/Gaussian/g16_from_xuruiqin/g16/l502.exe)
 Keep R1 ints in memory in canonical form, NReq=8284670918.
 FoFCou: FMM=F IPFlag=           0 FMFlag=           0 FMFlg1=           0
         NFxFlg=           0 DoJE=F BraDBF=F KetDBF=F FulRan=T
         wScrn=  0.000000 ICntrl=       600 IOpCl=  0 I1Cent=           0 NGrid=           0
         NMat0=    1 NMatS0= 127765 NMatT0=    0 NMatD0=    1 NMtDS0=    0 NMtDT0=    0
 Symmetry not used in FoFCou.
 Two-electron integral symmetry not used.
 Closed shell SCF:
 Using DIIS extrapolation, IDIIS=  1040.
 NGot= 13421772800 LenX=  5258957449 LenY=  5258566199
 Requested convergence on RMS density matrix=1.00D-08 within 128 cycles.
 Requested convergence on MAX density matrix=1.00D-06.
 Requested convergence on             energy=1.00D-06.
 No special actions if energy rises.

 Cycle   1  Pass 1  IDiag  1:
 E= -282.726800499725    
 DIIS: error= 1.80D-02 at cycle   1 NSaved=   1.
 NSaved= 1 IEnMin= 1 EnMin= -282.726800499725     IErMin= 1 ErrMin= 1.80D-02
 ErrMax= 1.80D-02  0.00D+00 EMaxC= 1.00D-01 BMatC= 6.50D-01 BMatP= 6.50D-01
 IDIUse=3 WtCom= 8.20D-01 WtEn= 1.80D-01
 Coeff-Com:  0.100D+01
 Coeff-En:   0.100D+01
 Coeff:      0.100D+01
 Gap=     0.502 Goal=   None    Shift=    0.000
 GapD=    0.502 DampG=2.000 DampE=0.500 DampFc=1.0000 IDamp=-1.
 RMSDP=8.83D-04 MaxDP=7.04D-02              OVMax= 1.23D-01

 Cycle   2  Pass 1  IDiag  1:
 E= -282.912464618449     Delta-E=       -0.185664118724 Rises=F Damp=F
 DIIS: error= 1.19D-02 at cycle   2 NSaved=   2.
 NSaved= 2 IEnMin= 2 EnMin= -282.912464618449     IErMin= 2 ErrMin= 1.19D-02
 ErrMax= 1.19D-02  0.00D+00 EMaxC= 1.00D-01 BMatC= 8.15D-02 BMatP= 6.50D-01
 IDIUse=3 WtCom= 8.81D-01 WtEn= 1.19D-01
 Coeff-Com:  0.189D+00 0.811D+00
 Coeff-En:   0.000D+00 0.100D+01
 Coeff:      0.167D+00 0.833D+00
 Gap=     0.481 Goal=   None    Shift=    0.000
 RMSDP=3.48D-04 MaxDP=2.72D-02 DE=-1.86D-01 OVMax= 6.02D-02

 Cycle   3  Pass 1  IDiag  1:
 E= -282.960506341060     Delta-E=       -0.048041722612 Rises=F Damp=F
 DIIS: error= 3.46D-03 at cycle   3 NSaved=   3.
 NSaved= 3 IEnMin= 3 EnMin= -282.960506341060     IErMin= 3 ErrMin= 3.46D-03
 ErrMax= 3.46D-03  0.00D+00 EMaxC= 1.00D-01 BMatC= 1.14D-02 BMatP= 8.15D-02
 IDIUse=3 WtCom= 9.65D-01 WtEn= 3.46D-02
 Coeff-Com: -0.234D-01 0.244D+00 0.779D+00
 Coeff-En:   0.000D+00 0.000D+00 0.100D+01
 Coeff:     -0.226D-01 0.236D+00 0.787D+00
 Gap=     0.448 Goal=   None    Shift=    0.000
 RMSDP=8.61D-05 MaxDP=7.27D-03 DE=-4.80D-02 OVMax= 2.58D-02

 Cycle   4  Pass 1  IDiag  1:
 E= -282.967752148503     Delta-E=       -0.007245807443 Rises=F Damp=F
 DIIS: error= 1.29D-03 at cycle   4 NSaved=   4.
 NSaved= 4 IEnMin= 4 EnMin= -282.967752148503     IErMin= 4 ErrMin= 1.29D-03
 ErrMax= 1.29D-03  0.00D+00 EMaxC= 1.00D-01 BMatC= 3.71D-04 BMatP= 1.14D-02
 IDIUse=3 WtCom= 9.87D-01 WtEn= 1.29D-02
 Coeff-Com: -0.105D-01 0.579D-01 0.245D+00 0.708D+00
 Coeff-En:   0.000D+00 0.000D+00 0.000D+00 0.100D+01
 Coeff:     -0.104D-01 0.572D-01 0.242D+00 0.712D+00
 Gap=     0.444 Goal=   None    Shift=    0.000
 RMSDP=2.00D-05 MaxDP=1.49D-03 DE=-7.25D-03 OVMax= 4.90D-03

 Cycle   5  Pass 1  IDiag  1:
 E= -282.968069557375     Delta-E=       -0.000317408872 Rises=F Damp=F
 DIIS: error= 2.61D-04 at cycle   5 NSaved=   5.
 NSaved= 5 IEnMin= 5 EnMin= -282.968069557375     IErMin= 5 ErrMin= 2.61D-04
 ErrMax= 2.61D-04  0.00D+00 EMaxC= 1.00D-01 BMatC= 2.98D-05 BMatP= 3.71D-04
 IDIUse=3 WtCom= 9.97D-01 WtEn= 2.61D-03
 Coeff-Com:  0.206D-02-0.246D-01-0.823D-01 0.498D-01 0.106D+01
 Coeff-En:   0.000D+00 0.000D+00 0.000D+00 0.000D+00 0.100D+01
 Coeff:      0.205D-02-0.245D-01-0.821D-01 0.497D-01 0.105D+01
 Gap=     0.445 Goal=   None    Shift=    0.000
 RMSDP=1.18D-05 MaxDP=7.13D-04 DE=-3.17D-04 OVMax= 3.71D-03

 Cycle   6  Pass 1  IDiag  1:
 E= -282.968123672737     Delta-E=       -0.000054115362 Rises=F Damp=F
 DIIS: error= 8.91D-05 at cycle   6 NSaved=   6.
 NSaved= 6 IEnMin= 6 EnMin= -282.968123672737     IErMin= 6 ErrMin= 8.91D-05
 ErrMax= 8.91D-05  0.00D+00 EMaxC= 1.00D-01 BMatC= 4.02D-06 BMatP= 2.98D-05
 IDIUse=1 WtCom= 1.00D+00 WtEn= 0.00D+00
 Coeff-Com:  0.139D-02-0.109D-01-0.396D-01-0.708D-01 0.190D+00 0.930D+00
 Coeff:      0.139D-02-0.109D-01-0.396D-01-0.708D-01 0.190D+00 0.930D+00
 Gap=     0.445 Goal=   None    Shift=    0.000
 RMSDP=4.50D-06 MaxDP=2.74D-04 DE=-5.41D-05 OVMax= 1.05D-03

 Cycle   7  Pass 1  IDiag  1:
 E= -282.968131172098     Delta-E=       -0.000007499361 Rises=F Damp=F
 DIIS: error= 3.12D-05 at cycle   7 NSaved=   7.
 NSaved= 7 IEnMin= 7 EnMin= -282.968131172098     IErMin= 7 ErrMin= 3.12D-05
 ErrMax= 3.12D-05  0.00D+00 EMaxC= 1.00D-01 BMatC= 5.01D-07 BMatP= 4.02D-06
 IDIUse=1 WtCom= 1.00D+00 WtEn= 0.00D+00
 Coeff-Com: -0.200D-03 0.271D-02 0.109D-01-0.160D-01-0.120D+00 0.602D-02
 Coeff-Com:  0.112D+01
 Coeff:     -0.200D-03 0.271D-02 0.109D-01-0.160D-01-0.120D+00 0.602D-02
 Coeff:      0.112D+01
 Gap=     0.445 Goal=   None    Shift=    0.000
 RMSDP=1.78D-06 MaxDP=1.18D-04 DE=-7.50D-06 OVMax= 7.13D-04

 Cycle   8  Pass 1  IDiag  1:
 E= -282.968132516220     Delta-E=       -0.000001344122 Rises=F Damp=F
 DIIS: error= 1.12D-05 at cycle   8 NSaved=   8.
 NSaved= 8 IEnMin= 8 EnMin= -282.968132516220     IErMin= 8 ErrMin= 1.12D-05
 ErrMax= 1.12D-05  0.00D+00 EMaxC= 1.00D-01 BMatC= 6.88D-08 BMatP= 5.01D-07
 IDIUse=1 WtCom= 1.00D+00 WtEn= 0.00D+00
 Coeff-Com: -0.161D-03 0.114D-02 0.429D-02 0.634D-02-0.320D-02-0.116D+00
 Coeff-Com: -0.151D+00 0.126D+01
 Coeff:     -0.161D-03 0.114D-02 0.429D-02 0.634D-02-0.320D-02-0.116D+00
 Coeff:     -0.151D+00 0.126D+01
 Gap=     0.445 Goal=   None    Shift=    0.000
 RMSDP=7.27D-07 MaxDP=5.40D-05 DE=-1.34D-06 OVMax= 3.02D-04

 Cycle   9  Pass 1  IDiag  1:
 E= -282.968132717248     Delta-E=       -0.000000201029 Rises=F Damp=F
 DIIS: error= 3.49D-06 at cycle   9 NSaved=   9.
 NSaved= 9 IEnMin= 9 EnMin= -282.968132717248     IErMin= 9 ErrMin= 3.49D-06
 ErrMax= 3.49D-06  0.00D+00 EMaxC= 1.00D-01 BMatC= 8.61D-09 BMatP= 6.88D-08
 IDIUse=1 WtCom= 1.00D+00 WtEn= 0.00D+00
 Coeff-Com: -0.943D-06-0.150D-03-0.592D-03 0.201D-02 0.157D-01-0.180D-01
 Coeff-Com: -0.153D+00 0.176D+00 0.978D+00
 Coeff:     -0.943D-06-0.150D-03-0.592D-03 0.201D-02 0.157D-01-0.180D-01
 Coeff:     -0.153D+00 0.176D+00 0.978D+00
 Gap=     0.445 Goal=   None    Shift=    0.000
 RMSDP=2.16D-07 MaxDP=1.52D-05 DE=-2.01D-07 OVMax= 8.42D-05

 Cycle  10  Pass 1  IDiag  1:
 E= -282.968132735973     Delta-E=       -0.000000018725 Rises=F Damp=F
 DIIS: error= 1.35D-06 at cycle  10 NSaved=  10.
 NSaved=10 IEnMin=10 EnMin= -282.968132735973     IErMin=10 ErrMin= 1.35D-06
 ErrMax= 1.35D-06  0.00D+00 EMaxC= 1.00D-01 BMatC= 1.06D-09 BMatP= 8.61D-09
 IDIUse=1 WtCom= 1.00D+00 WtEn= 0.00D+00
 Coeff-Com:  0.249D-04-0.204D-03-0.720D-03-0.119D-02 0.258D-02 0.163D-01
 Coeff-Com:  0.108D-01-0.183D+00 0.977D-01 0.106D+01
 Coeff:      0.249D-04-0.204D-03-0.720D-03-0.119D-02 0.258D-02 0.163D-01
 Coeff:      0.108D-01-0.183D+00 0.977D-01 0.106D+01
 Gap=     0.445 Goal=   None    Shift=    0.000
 RMSDP=8.61D-08 MaxDP=6.10D-06 DE=-1.87D-08 OVMax= 2.72D-05

 Cycle  11  Pass 1  IDiag  1:
 E= -282.968132738287     Delta-E=       -0.000000002314 Rises=F Damp=F
 DIIS: error= 2.91D-07 at cycle  11 NSaved=  11.
 NSaved=11 IEnMin=11 EnMin= -282.968132738287     IErMin=11 ErrMin= 2.91D-07
 ErrMax= 2.91D-07  0.00D+00 EMaxC= 1.00D-01 BMatC= 6.62D-11 BMatP= 1.06D-09
 IDIUse=1 WtCom= 1.00D+00 WtEn= 0.00D+00
 Coeff-Com: -0.645D-06 0.149D-04 0.852D-04-0.127D-03-0.999D-03-0.765D-04
 Coeff-Com:  0.100D-01 0.272D-02-0.897D-01-0.943D-01 0.117D+01
 Coeff:     -0.645D-06 0.149D-04 0.852D-04-0.127D-03-0.999D-03-0.765D-04
 Coeff:      0.100D-01 0.272D-02-0.897D-01-0.943D-01 0.117D+01
 Gap=     0.445 Goal=   None    Shift=    0.000
 RMSDP=2.44D-08 MaxDP=1.33D-06 DE=-2.31D-09 OVMax= 5.29D-06

 Cycle  12  Pass 1  IDiag  1:
 E= -282.968132738433     Delta-E=       -0.000000000146 Rises=F Damp=F
 DIIS: error= 8.11D-08 at cycle  12 NSaved=  12.
 NSaved=12 IEnMin=12 EnMin= -282.968132738433     IErMin=12 ErrMin= 8.11D-08
 ErrMax= 8.11D-08  0.00D+00 EMaxC= 1.00D-01 BMatC= 3.30D-12 BMatP= 6.62D-11
 IDIUse=1 WtCom= 1.00D+00 WtEn= 0.00D+00
 Coeff-Com: -0.146D-05 0.115D-04 0.412D-04 0.725D-04-0.896D-04-0.105D-02
 Coeff-Com: -0.167D-02 0.137D-01-0.457D-02-0.645D-01-0.422D-01 0.110D+01
 Coeff:     -0.146D-05 0.115D-04 0.412D-04 0.725D-04-0.896D-04-0.105D-02
 Coeff:     -0.167D-02 0.137D-01-0.457D-02-0.645D-01-0.422D-01 0.110D+01
 Gap=     0.445 Goal=   None    Shift=    0.000
 RMSDP=5.58D-09 MaxDP=2.86D-07 DE=-1.46D-10 OVMax= 9.74D-07

 SCF Done:  E(RHF) =  -282.968132738     A.U. after   12 cycles
            NFock= 12  Conv=0.56D-08     -V/T= 2.0011
 KE= 2.826686443479D+02 PE=-1.027556910244D+03 EE= 2.813658084283D+02
 Leave Link  502 at Fri Jan 15 17:46:54 2021, MaxMem= 13421772800 cpu:            1234.6 elap:             207.9
 (Enter /data2/software/Gaussian/g16_from_xuruiqin/g16/l801.exe)
 ExpMin= 3.22D-02 ExpMax= 6.14D+04 ExpMxC= 5.91D+02 IAcc=3 IRadAn=         5 AccDes= 0.00D+00
 HarFok:  IExCor=  205 AccDes= 0.00D+00 IRadAn=         5 IDoV=-2 UseB2=F ITyADJ=14
 ICtDFT= 12500011 ScaDFX=  1.000000  1.000000  1.000000  1.000000
 DSYEVD-2 returned Info=        2663 IAlg= 4 N=    71 NDim=    71 NE2=   189027758 trying  DSYEV.
 Largest valence mixing into a core orbital is  1.87D-04
 Largest core mixing into a valence orbital is  2.99D-05
 Range of M.O.s used for correlation:     6   505
 NBasis=   505 NAE=    20 NBE=    20 NFC=     5 NFV=     0
 NROrb=    500 NOA=    15 NOB=    15 NVA=   485 NVB=   485

 **** Warning!!: The largest alpha MO coefficient is  0.64077138D+02

 Leave Link  801 at Fri Jan 15 17:46:55 2021, MaxMem= 13421772800 cpu:               5.1 elap:               0.2
 (Enter /data2/software/Gaussian/g16_from_xuruiqin/g16/l906.exe)
 FulOut=F Deriv=F AODrv=F NAtomX=    10
   MMem=          99  MDisk=          15 MDiskD=          15
  W3Min=     4546875 MinDsk=     6899000 NBas6D=         625
 NBas2D=      197620    NTT=      195625    LW2=     4508827
    MDV= 13420624106 MDiskM=       47710 NBas2p=      189735
 Fully direct method using O(OVN) memory.
 IMap=   1   2   3   4   5   6   7   8   9  10  11  12  13  14  15
 JobTyp=1 Pass  1:  I=   1 to  15 NPSUse= 28 ParTrn=T ParDer=T DoDerP=F.
 Spin components of T(2) and E(2):
     alpha-alpha T2 =       0.3650296913D-01 E2=     -0.1325971623D+00
     alpha-beta  T2 =       0.2047668190D+00 E2=     -0.8213737974D+00
     beta-beta   T2 =       0.3650296913D-01 E2=     -0.1325971623D+00
 The integrals were generated   1 times.
 ANorm=    0.1130386110D+01
 E2 =    -0.1086568122D+01 EUMP2 =    -0.28405470086033D+03
 Leave Link  906 at Fri Jan 15 17:51:04 2021, MaxMem= 13421772800 cpu:            6982.6 elap:             249.3
 (Enter /data2/software/Gaussian/g16_from_xuruiqin/g16/l601.exe)
 Copying SCF densities to generalized density rwf, IOpCl= 0 IROHF=0.

 **********************************************************************

            Population analysis using the SCF Density.

 **********************************************************************

 Orbital symmetries:
       Occupied  (A) (A) (A) (A) (A) (A) (A) (A) (A) (A) (A) (A)
                 (A) (A) (A) (A) (A) (A) (A) (A)
       Virtual   (A) (A) (A) (A) (A) (A) (A) (A) (A) (A) (A) (A)
                 (A) (A) (A) (A) (A) (A) (A) (A) (A) (A) (A) (A)
                 (A) (A) (A) (A) (A) (A) (A) (A) (A) (A) (A) (A)
                 (A) (A) (A) (A) (A) (A) (A) (A) (A) (A) (A) (A)
                 (A) (A) (A) (A) (A) (A) (A) (A) (A) (A) (A) (A)
                 (A) (A) (A) (A) (A) (A) (A) (A) (A) (A) (A) (A)
                 (A) (A) (A) (A) (A) (A) (A) (A) (A) (A) (A) (A)
                 (A) (A) (A) (A) (A) (A) (A) (A) (A) (A) (A) (A)
                 (A) (A) (A) (A) (A) (A) (A) (A) (A) (A) (A) (A)
                 (A) (A) (A) (A) (A) (A) (A) (A) (A) (A) (A) (A)
                 (A) (A) (A) (A) (A) (A) (A) (A) (A) (A) (A) (A)
                 (A) (A) (A) (A) (A) (A) (A) (A) (A) (A) (A) (A)
                 (A) (A) (A) (A) (A) (A) (A) (A) (A) (A) (A) (A)
                 (A) (A) (A) (A) (A) (A) (A) (A) (A) (A) (A) (A)
                 (A) (A) (A) (A) (A) (A) (A) (A) (A) (A) (A) (A)
                 (A) (A) (A) (A) (A) (A) (A) (A) (A) (A) (A) (A)
                 (A) (A) (A) (A) (A) (A) (A) (A) (A) (A) (A) (A)
                 (A) (A) (A) (A) (A) (A) (A) (A) (A) (A) (A) (A)
                 (A) (A) (A) (A) (A) (A) (A) (A) (A) (A) (A) (A)
                 (A) (A) (A) (A) (A) (A) (A) (A) (A) (A) (A) (A)
                 (A) (A) (A) (A) (A) (A) (A) (A) (A) (A) (A) (A)
                 (A) (A) (A) (A) (A) (A) (A) (A) (A) (A) (A) (A)
                 (A) (A) (A) (A) (A) (A) (A) (A) (A) (A) (A) (A)
                 (A) (A) (A) (A) (A) (A) (A) (A) (A) (A) (A) (A)
                 (A) (A) (A) (A) (A) (A) (A) (A) (A) (A) (A) (A)
                 (A) (A) (A) (A) (A) (A) (A) (A) (A) (A) (A) (A)
                 (A) (A) (A) (A) (A) (A) (A) (A) (A) (A) (A) (A)
                 (A) (A) (A) (A) (A) (A) (A) (A) (A) (A) (A) (A)
                 (A) (A) (A) (A) (A) (A) (A) (A) (A) (A) (A) (A)
                 (A) (A) (A) (A) (A) (A) (A) (A) (A) (A) (A) (A)
                 (A) (A) (A) (A) (A) (A) (A) (A) (A) (A) (A) (A)
                 (A) (A) (A) (A) (A) (A) (A) (A) (A) (A) (A) (A)
                 (A) (A) (A) (A) (A) (A) (A) (A) (A) (A) (A) (A)
                 (A) (A) (A) (A) (A) (A) (A) (A) (A) (A) (A) (A)
                 (A) (A) (A) (A) (A) (A) (A) (A) (A) (A) (A) (A)
                 (A) (A) (A) (A) (A) (A) (A) (A) (A) (A) (A) (A)
                 (A) (A) (A) (A) (A) (A) (A) (A) (A) (A) (A) (A)
                 (A) (A) (A) (A) (A) (A) (A) (A) (A) (A) (A) (A)
                 (A) (A) (A) (A) (A) (A) (A) (A) (A) (A) (A) (A)
                 (A) (A) (A) (A) (A) (A) (A) (A) (A) (A) (A) (A)
                 (A) (A) (A) (A) (A)
 The electronic state is 1-A.
 Alpha  occ. eigenvalues --  -20.61766 -20.55411 -15.54747 -11.39002 -11.27681
 Alpha  occ. eigenvalues --   -1.47527  -1.37176  -1.19499  -0.98326  -0.81614
 Alpha  occ. eigenvalues --   -0.72377  -0.71210  -0.67255  -0.63424  -0.60436
 Alpha  occ. eigenvalues --   -0.57833  -0.56590  -0.49239  -0.46293  -0.40425
 Alpha virt. eigenvalues --    0.04113   0.04759   0.05921   0.06535   0.08604
 Alpha virt. eigenvalues --    0.08866   0.08906   0.11260   0.12082   0.13993
 Alpha virt. eigenvalues --    0.15026   0.15563   0.16227   0.16791   0.18388
 Alpha virt. eigenvalues --    0.18876   0.20249   0.20850   0.21551   0.21896
 Alpha virt. eigenvalues --    0.23545   0.24805   0.25049   0.25981   0.27680
 Alpha virt. eigenvalues --    0.28202   0.30359   0.30830   0.32537   0.33056
 Alpha virt. eigenvalues --    0.33661   0.35948   0.37942   0.38291   0.38886
 Alpha virt. eigenvalues --    0.39802   0.41748   0.42633   0.43999   0.44599
 Alpha virt. eigenvalues --    0.45903   0.46730   0.48203   0.50826   0.51716
 Alpha virt. eigenvalues --    0.52662   0.53785   0.54674   0.55526   0.55654
 Alpha virt. eigenvalues --    0.57302   0.58491   0.60042   0.60890   0.62037
 Alpha virt. eigenvalues --    0.63612   0.63956   0.65263   0.65734   0.67870
 Alpha virt. eigenvalues --    0.68723   0.69054   0.71041   0.72106   0.73546
 Alpha virt. eigenvalues --    0.75764   0.76309   0.78534   0.78750   0.80075
 Alpha virt. eigenvalues --    0.81589   0.83102   0.83429   0.86775   0.87265
 Alpha virt. eigenvalues --    0.89581   0.90433   0.92194   0.93713   0.95592
 Alpha virt. eigenvalues --    0.96962   0.98263   1.00398   1.01560   1.02350
 Alpha virt. eigenvalues --    1.04874   1.06889   1.07438   1.10000   1.10740
 Alpha virt. eigenvalues --    1.10976   1.12328   1.14712   1.15625   1.16544
 Alpha virt. eigenvalues --    1.18655   1.19079   1.22020   1.22714   1.23494
 Alpha virt. eigenvalues --    1.24794   1.26786   1.27588   1.28738   1.30402
 Alpha virt. eigenvalues --    1.32963   1.34795   1.35046   1.36183   1.38638
 Alpha virt. eigenvalues --    1.40148   1.40626   1.42027   1.45023   1.47043
 Alpha virt. eigenvalues --    1.49510   1.51394   1.52289   1.53076   1.56174
 Alpha virt. eigenvalues --    1.57116   1.58181   1.61324   1.62338   1.62536
 Alpha virt. eigenvalues --    1.65852   1.66683   1.68219   1.68249   1.71238
 Alpha virt. eigenvalues --    1.72514   1.74752   1.77064   1.79139   1.80142
 Alpha virt. eigenvalues --    1.80725   1.81841   1.83375   1.87079   1.88241
 Alpha virt. eigenvalues --    1.89951   1.90469   1.93923   1.96135   1.98815
 Alpha virt. eigenvalues --    1.99738   2.00777   2.03722   2.04431   2.06570
 Alpha virt. eigenvalues --    2.08929   2.09695   2.10919   2.15249   2.17058
 Alpha virt. eigenvalues --    2.19861   2.21648   2.21880   2.23092   2.24588
 Alpha virt. eigenvalues --    2.29764   2.33744   2.35560   2.38903   2.40021
 Alpha virt. eigenvalues --    2.41278   2.45909   2.47429   2.48152   2.51141
 Alpha virt. eigenvalues --    2.55954   2.59467   2.61307   2.61989   2.63715
 Alpha virt. eigenvalues --    2.64623   2.66681   2.70171   2.72476   2.73709
 Alpha virt. eigenvalues --    2.76971   2.78406   2.78833   2.79931   2.81086
 Alpha virt. eigenvalues --    2.83842   2.85676   2.88222   2.89932   2.91918
 Alpha virt. eigenvalues --    2.93604   2.93723   2.96672   2.98465   3.00242
 Alpha virt. eigenvalues --    3.01233   3.02791   3.05813   3.06646   3.10772
 Alpha virt. eigenvalues --    3.11911   3.13560   3.17944   3.20311   3.23226
 Alpha virt. eigenvalues --    3.24012   3.26287   3.28813   3.31121   3.32409
 Alpha virt. eigenvalues --    3.34279   3.38398   3.38543   3.41761   3.44596
 Alpha virt. eigenvalues --    3.48744   3.53264   3.55361   3.58495   3.59180
 Alpha virt. eigenvalues --    3.63553   3.64574   3.66410   3.68823   3.71243
 Alpha virt. eigenvalues --    3.77693   3.81080   3.82810   3.83357   3.88945
 Alpha virt. eigenvalues --    3.93865   3.94052   3.96251   4.01190   4.04108
 Alpha virt. eigenvalues --    4.04414   4.06561   4.10730   4.12684   4.14971
 Alpha virt. eigenvalues --    4.20628   4.24672   4.25868   4.26521   4.29977
 Alpha virt. eigenvalues --    4.34585   4.37604   4.41750   4.44244   4.44910
 Alpha virt. eigenvalues --    4.47780   4.50609   4.53181   4.54614   4.59027
 Alpha virt. eigenvalues --    4.62011   4.63524   4.66769   4.68945   4.71207
 Alpha virt. eigenvalues --    4.73463   4.75124   4.80738   4.82799   4.85540
 Alpha virt. eigenvalues --    4.87584   4.93306   4.93494   4.98805   5.02115
 Alpha virt. eigenvalues --    5.05573   5.08408   5.08992   5.14823   5.20103
 Alpha virt. eigenvalues --    5.36736   5.50639   5.58777   5.60753   5.70734
 Alpha virt. eigenvalues --    5.75793   5.80549   5.88807   5.95280   5.97514
 Alpha virt. eigenvalues --    6.02219   6.08266   6.09486   6.13587   6.15239
 Alpha virt. eigenvalues --    6.17601   6.20322   6.23194   6.24619   6.26729
 Alpha virt. eigenvalues --    6.30206   6.36080   6.37055   6.38800   6.42460
 Alpha virt. eigenvalues --    6.45780   6.48588   6.49547   6.53751   6.57325
 Alpha virt. eigenvalues --    6.60147   6.61373   6.66717   6.70761   6.75286
 Alpha virt. eigenvalues --    6.76180   6.79673   6.81090   6.84091   6.85198
 Alpha virt. eigenvalues --    6.89538   6.93660   6.96754   7.03644   7.04205
 Alpha virt. eigenvalues --    7.07936   7.14246   7.17924   7.20032   7.21976
 Alpha virt. eigenvalues --    7.22816   7.32095   7.33450   7.35367   7.40104
 Alpha virt. eigenvalues --    7.41321   7.43194   7.47500   7.52157   7.54014
 Alpha virt. eigenvalues --    7.57990   7.64827   7.66765   7.68021   7.69309
 Alpha virt. eigenvalues --    7.70930   7.74338   7.79523   7.82620   7.84087
 Alpha virt. eigenvalues --    7.86829   7.88550   7.94992   8.01197   8.01950
 Alpha virt. eigenvalues --    8.10942   8.12444   8.15674   8.17370   8.24671
 Alpha virt. eigenvalues --    8.25057   8.29478   8.32559   8.33977   8.36207
 Alpha virt. eigenvalues --    8.38647   8.41922   8.45226   8.48002   8.50784
 Alpha virt. eigenvalues --    8.51525   8.54252   8.57240   8.59157   8.61055
 Alpha virt. eigenvalues --    8.61765   8.67771   8.69671   8.71299   8.75568
 Alpha virt. eigenvalues --    8.76216   8.79716   8.82657   8.82903   8.87546
 Alpha virt. eigenvalues --    8.88710   8.93884   9.00276   9.00753   9.06141
 Alpha virt. eigenvalues --    9.08900   9.12479   9.16500   9.18079   9.22452
 Alpha virt. eigenvalues --    9.24393   9.28570   9.29575   9.35812   9.38216
 Alpha virt. eigenvalues --    9.40239   9.40537   9.43362   9.44829   9.50953
 Alpha virt. eigenvalues --    9.53383   9.54990   9.59608   9.62996   9.69061
 Alpha virt. eigenvalues --    9.72314   9.74017   9.82263   9.85002   9.89398
 Alpha virt. eigenvalues --    9.92127  10.03363  10.09389  10.17670  10.27570
 Alpha virt. eigenvalues --   10.31101  10.35321  10.40583  10.42345  10.49402
 Alpha virt. eigenvalues --   10.51275  10.57309  10.62620  10.65790  10.69251
 Alpha virt. eigenvalues --   10.76878  10.80827  10.85700  10.86865  10.88339
 Alpha virt. eigenvalues --   10.96826  11.00675  11.07128  11.17278  11.20871
 Alpha virt. eigenvalues --   11.22199  11.41327  11.41977  11.47498  11.59726
 Alpha virt. eigenvalues --   11.62679  11.85625  11.96612  11.97891  12.03235
 Alpha virt. eigenvalues --   12.04049  12.10762  12.16789  12.19419  12.20360
 Alpha virt. eigenvalues --   12.21475  12.28263  12.30092  12.32042  12.35281
 Alpha virt. eigenvalues --   12.42465  12.48312  12.52022  12.55514  12.59121
 Alpha virt. eigenvalues --   12.70401  12.87167  12.88727  13.00809  13.02925
 Alpha virt. eigenvalues --   13.10338  13.14260  13.26257  13.37115  13.70293
 Alpha virt. eigenvalues --   13.86358  13.98526  14.32157  14.40256  14.41754
 Alpha virt. eigenvalues --   14.57989  14.81872  14.88491  14.95824  17.02306
 Alpha virt. eigenvalues --   25.52322  26.94495  35.21492  43.54738  44.67615
          Condensed to atoms (all electrons):
               1          2          3          4          5          6
     1  C    4.427968   0.251996   0.400986  -0.019018   0.292929  -0.026233
     2  O    0.251996   8.153300  -0.073393   0.287698  -0.050430   0.010586
     3  O    0.400986  -0.073393   8.334496  -0.010012  -0.007844  -0.031909
     4  H   -0.019018   0.287698  -0.010012   0.442026   0.002307  -0.000510
     5  C    0.292929  -0.050430  -0.007844   0.002307   4.793245   0.197261
     6  N   -0.026233   0.010586  -0.031909  -0.000510   0.197261   6.853114
     7  H   -0.004794  -0.004778  -0.002451  -0.000149   0.412393  -0.017326
     8  H   -0.021224  -0.010726   0.000984  -0.000033   0.461994  -0.059579
     9  H    0.010740  -0.000551  -0.000923   0.000035  -0.026310   0.367838
    10  H   -0.011421  -0.000568   0.005425   0.000008   0.003506   0.334904
               7          8          9         10
     1  C   -0.004794  -0.021224   0.010740  -0.011421
     2  O   -0.004778  -0.010726  -0.000551  -0.000568
     3  O   -0.002451   0.000984  -0.000923   0.005425
     4  H   -0.000149  -0.000033   0.000035   0.000008
     5  C    0.412393   0.461994  -0.026310   0.003506
     6  N   -0.017326  -0.059579   0.367838   0.334904
     7  H    0.399932   0.002885  -0.011442  -0.000291
     8  H    0.002885   0.379655   0.000435   0.004665
     9  H   -0.011442   0.000435   0.493352  -0.021615
    10  H   -0.000291   0.004665  -0.021615   0.450821
 Mulliken charges:
               1
     1  C    0.698070
     2  O   -0.563134
     3  O   -0.615359
     4  H    0.297647
     5  C   -0.079051
     6  N   -0.628147
     7  H    0.226021
     8  H    0.240945
     9  H    0.188441
    10  H    0.234566
 Sum of Mulliken charges =  -0.00000
 Mulliken charges with hydrogens summed into heavy atoms:
               1
     1  C    0.698070
     2  O   -0.265486
     3  O   -0.615359
     5  C    0.387915
     6  N   -0.205140
 Electronic spatial extent (au):  <R**2>=            414.5847
 Charge=             -0.0000 electrons
 Dipole moment (field-independent basis, Debye):
    X=              0.0724    Y=             -1.8012    Z=              1.3422  Tot=              2.2475
 Quadrupole moment (field-independent basis, Debye-Ang):
   XX=            -23.6700   YY=            -33.2731   ZZ=            -30.5025
   XY=              1.2275   XZ=             -3.3797   YZ=              0.1034
 Traceless Quadrupole moment (field-independent basis, Debye-Ang):
   XX=              5.4785   YY=             -4.1245   ZZ=             -1.3540
   XY=              1.2275   XZ=             -3.3797   YZ=              0.1034
 Octapole moment (field-independent basis, Debye-Ang**2):
  XXX=             14.6497  YYY=             -2.9152  ZZZ=              1.8874  XYY=             -6.3648
  XXY=              2.4322  XXZ=              6.9346  XZZ=              4.3613  YZZ=             -0.5927
  YYZ=             -0.0670  XYZ=             -0.7137
 Hexadecapole moment (field-independent basis, Debye-Ang**3):
 XXXX=           -243.6157 YYYY=           -142.4528 ZZZZ=            -37.7760 XXXY=              8.5390
 XXXZ=            -20.5482 YYYX=             -5.1298 YYYZ=              1.7275 ZZZX=             -4.4497
 ZZZY=              0.1399 XXYY=            -78.6795 XXZZ=            -67.7052 YYZZ=            -28.4923
 XXYZ=              0.2953 YYXZ=             -1.1485 ZZXY=              1.1741
 N-N= 1.805543247289D+02 E-N=-1.027556912516D+03  KE= 2.826686443479D+02
 Leave Link  601 at Fri Jan 15 17:51:04 2021, MaxMem= 13421772800 cpu:               4.7 elap:               0.3
 (Enter /data2/software/Gaussian/g16_from_xuruiqin/g16/l9999.exe)
 Unable to Open any file for archive entry.
 1\1\GINC-CPU05\SP\RMP2-FC\Jun-CC-pVQZ\C2H5N1O2\SHUCHONG\15-Jan-2021\0\
 \#p mp2/jun-cc-pvqz\\start best geom PCCP paper\\0,1\C\O,1,1.34608\O,1
 ,1.20274,2,123.21263\H,2,0.96513,1,106.9601,3,1.12063,0\C,1,1.50353,3,
 125.17128,2,178.03326,0\N,5,1.44879,1,110.05161,3,18.04528,0\H,5,1.096
 82,1,105.6396,3,-106.18775,0\H,5,1.08963,1,108.30581,3,139.44601,0\H,6
 ,1.00859,5,111.64684,1,-155.36007,0\H,6,1.01187,5,110.28053,1,-34.3155
 5,0\\Version=ES64L-G16RevC.01\State=1-A\HF=-282.9681327\MP2=-284.05470
 09\RMSD=5.581e-09\PG=C01 [X(C2H5N1O2)]\\@
 The archive entry for this job was punched.


 REALITY IS FOR PEOPLE WHO CAN'T FACE SCIENCE FICTION.
 Job cpu time:       0 days  2 hours 18 minutes  6.5 seconds.
 Elapsed time:       0 days  0 hours  7 minutes 40.0 seconds.
 File lengths (MBytes):  RWF=     98 Int=      0 D2E=      0 Chk=     18 Scr=      1
 Normal termination of Gaussian 16 at Fri Jan 15 17:51:05 2021.
