 Entering Gaussian System, Link 0=g16
 Input=VIII_gtc_Best_geom_MP2_jun_cc_pVQZ.gjf
 Output=VIII_gtc_Best_geom_MP2_jun_cc_pVQZ.log
 Initial command:
 /data2/software/Gaussian/g16_from_xuruiqin/g16/l1.exe "/home/shuchong/scratch/Gau-29178.inp" -scrdir="/home/shuchong/scratch/"
 Entering Link 1 = /data2/software/Gaussian/g16_from_xuruiqin/g16/l1.exe PID=     29179.
  
 Copyright (c) 1988-2019, Gaussian, Inc.  All Rights Reserved.
  
 This is part of the Gaussian(R) 16 program.  It is based on
 the Gaussian(R) 09 system (copyright 2009, Gaussian, Inc.),
 the Gaussian(R) 03 system (copyright 2003, Gaussian, Inc.),
 the Gaussian(R) 98 system (copyright 1998, Gaussian, Inc.),
 the Gaussian(R) 94 system (copyright 1995, Gaussian, Inc.),
 the Gaussian 92(TM) system (copyright 1992, Gaussian, Inc.),
 the Gaussian 90(TM) system (copyright 1990, Gaussian, Inc.),
 the Gaussian 88(TM) system (copyright 1988, Gaussian, Inc.),
 the Gaussian 86(TM) system (copyright 1986, Carnegie Mellon
 University), and the Gaussian 82(TM) system (copyright 1983,
 Carnegie Mellon University). Gaussian is a federally registered
 trademark of Gaussian, Inc.
  
 This software contains proprietary and confidential information,
 including trade secrets, belonging to Gaussian, Inc.
  
 This software is provided under written license and may be
 used, copied, transmitted, or stored only in accord with that
 written license.
  
 The following legend is applicable only to US Government
 contracts under FAR:
  
                    RESTRICTED RIGHTS LEGEND
  
 Use, reproduction and disclosure by the US Government is
 subject to restrictions as set forth in subparagraphs (a)
 and (c) of the Commercial Computer Software - Restricted
 Rights clause in FAR 52.227-19.
  
 Gaussian, Inc.
 340 Quinnipiac St., Bldg. 40, Wallingford CT 06492
  
  
 ---------------------------------------------------------------
 Warning -- This program may not be used in any manner that
 competes with the business of Gaussian, Inc. or will provide
 assistance to any competitor of Gaussian, Inc.  The licensee
 of this program is prohibited from giving any competitor of
 Gaussian, Inc. access to this program.  By using this program,
 the user acknowledges that Gaussian, Inc. is engaged in the
 business of creating and licensing software in the field of
 computational chemistry and represents and warrants to the
 licensee that it is not a competitor of Gaussian, Inc. and that
 it will not use this program in any manner prohibited above.
 ---------------------------------------------------------------
  

 Cite this work as:
 Gaussian 16, Revision C.01,
 M. J. Frisch, G. W. Trucks, H. B. Schlegel, G. E. Scuseria, 
 M. A. Robb, J. R. Cheeseman, G. Scalmani, V. Barone, 
 G. A. Petersson, H. Nakatsuji, X. Li, M. Caricato, A. V. Marenich, 
 J. Bloino, B. G. Janesko, R. Gomperts, B. Mennucci, H. P. Hratchian, 
 J. V. Ortiz, A. F. Izmaylov, J. L. Sonnenberg, D. Williams-Young, 
 F. Ding, F. Lipparini, F. Egidi, J. Goings, B. Peng, A. Petrone, 
 T. Henderson, D. Ranasinghe, V. G. Zakrzewski, J. Gao, N. Rega, 
 G. Zheng, W. Liang, M. Hada, M. Ehara, K. Toyota, R. Fukuda, 
 J. Hasegawa, M. Ishida, T. Nakajima, Y. Honda, O. Kitao, H. Nakai, 
 T. Vreven, K. Throssell, J. A. Montgomery, Jr., J. E. Peralta, 
 F. Ogliaro, M. J. Bearpark, J. J. Heyd, E. N. Brothers, K. N. Kudin, 
 V. N. Staroverov, T. A. Keith, R. Kobayashi, J. Normand, 
 K. Raghavachari, A. P. Rendell, J. C. Burant, S. S. Iyengar, 
 J. Tomasi, M. Cossi, J. M. Millam, M. Klene, C. Adamo, R. Cammi, 
 J. W. Ochterski, R. L. Martin, K. Morokuma, O. Farkas, 
 J. B. Foresman, and D. J. Fox, Gaussian, Inc., Wallingford CT, 2019.
 
 ******************************************
 Gaussian 16:  ES64L-G16RevC.01  3-Jul-2019
                15-Jan-2021 
 ******************************************
 %chk=VIII_gtc_Best_geom_MP2_jun_cc_pVQZ.chk
 %nprocshared=28
 Will use up to   28 processors via shared memory.
 %mem=100GB
 ------------------
 #p mp2/jun-cc-pvqz
 ------------------
 1/38=1,172=1/1;
 2/12=2,17=6,18=5,40=1/2;
 3/5=16,6=2,7=60,11=9,25=1,30=1/1,2,3;
 4//1;
 5/5=2,38=5/2;
 8/10=1/1;
 9/16=-3/6;
 6/7=2,8=2,9=2,10=2/1;
 99/5=1,9=1/99;
 Leave Link    1 at Fri Jan 15 10:33:01 2021, MaxMem= 13421772800 cpu:               0.9 elap:               0.0
 (Enter /data2/software/Gaussian/g16_from_xuruiqin/g16/l101.exe)
 -------
 VIII_SP
 -------
 Symbolic Z-matrix:
 Charge =  0 Multiplicity = 1
 C
 O                    1    B1
 O                    1    B2       2    A1
 H                    2    B3       1    A2       3    D1       0
 C                    1    B4       3    A3       2    D2       0
 N                    5    B5       1    A4       3    D3       0
 H                    5    B6       1    A5       3    D4       0
 H                    5    B7       1    A6       3    D5       0
 H                    6    B8       5    A7       1    D6       0
 H                    6    B9       5    A8       1    D7       0
       Variables:
  B1                    1.35064                  
  B2                    1.19653                  
  B3                    0.96165                  
  B4                    1.51406                  
  B5                    1.44636                  
  B6                    1.09684                  
  B7                    1.09378                  
  B8                    1.00807                  
  B9                    1.0126                   
  A1                  120.39321                  
  A2                  110.57402                  
  A3                  124.09641                  
  A4                  110.35148                  
  A5                  106.10493                  
  A6                  108.59165                  
  A7                  112.08781                  
  A8                  109.66844                  
  D1                 -178.19299                  
  D2                  178.41709                  
  D3                   14.53424                  
  D4                 -109.33023                  
  D5                  135.75133                  
  D6                 -144.9572                   
  D7                  -23.85712                  
 
 ITRead=  0  0  0  0  0  0  0  0  0  0
 MicOpt= -1 -1 -1 -1 -1 -1 -1 -1 -1 -1
 NAtoms=     10 NQM=       10 NQMF=       0 NMMI=      0 NMMIF=      0
                NMic=       0 NMicF=      0.
                    Isotopes and Nuclear Properties:
 (Nuclear quadrupole moments (NQMom) in fm**2, nuclear magnetic moments (NMagM)
  in nuclear magnetons)

  Atom         1           2           3           4           5           6           7           8           9          10
 IAtWgt=          12          16          16           1          12          14           1           1           1           1
 AtmWgt=  12.0000000  15.9949146  15.9949146   1.0078250  12.0000000  14.0030740   1.0078250   1.0078250   1.0078250   1.0078250
 NucSpn=           0           0           0           1           0           2           1           1           1           1
 AtZEff=  -0.0000000  -0.0000000  -0.0000000  -0.0000000  -0.0000000  -0.0000000  -0.0000000  -0.0000000  -0.0000000  -0.0000000
 NQMom=    0.0000000   0.0000000   0.0000000   0.0000000   0.0000000   2.0440000   0.0000000   0.0000000   0.0000000   0.0000000
 NMagM=    0.0000000   0.0000000   0.0000000   2.7928460   0.0000000   0.4037610   2.7928460   2.7928460   2.7928460   2.7928460
 AtZNuc=   6.0000000   8.0000000   8.0000000   1.0000000   6.0000000   7.0000000   1.0000000   1.0000000   1.0000000   1.0000000
 Leave Link  101 at Fri Jan 15 10:33:01 2021, MaxMem= 13421772800 cpu:               2.4 elap:               0.1
 (Enter /data2/software/Gaussian/g16_from_xuruiqin/g16/l202.exe)
                          Input orientation:                          
 ---------------------------------------------------------------------
 Center     Atomic      Atomic             Coordinates (Angstroms)
 Number     Number       Type             X           Y           Z
 ---------------------------------------------------------------------
      1          6           0        0.000000    0.000000    0.000000
      2          8           0        0.000000    0.000000    1.350639
      3          8           0        1.032094    0.000000   -0.605362
      4          1           0       -0.899872   -0.028390    1.688581
      5          6           0       -1.366212    0.034634   -0.651657
      6          7           0       -1.259382   -0.273721   -2.060724
      7          1           0       -1.777130    1.030203   -0.444170
      8          1           0       -2.010889   -0.691992   -0.148913
      9          1           0       -1.923118    0.245663   -2.613800
     10          1           0       -0.324127   -0.061947   -2.385997
 ---------------------------------------------------------------------
                    Distance matrix (angstroms):
                    1          2          3          4          5
     1  C    0.000000
     2  O    1.350639   0.000000
     3  O    1.196529   2.211596   0.000000
     4  H    1.913604   0.961655   2.999245   0.000000
     5  C    1.514065   2.424237   2.399003   2.387082   0.000000
     6  N    2.430545   3.646692   2.728345   3.774483   1.446363
     7  H    2.101617   2.727792   2.996505   2.537484   1.096842
     8  H    2.131831   2.602150   3.153878   2.247468   1.093775
     9  H    3.254333   4.413106   3.581543   4.430871   2.050532
    10  H    2.408709   3.751179   2.239160   4.115191   2.025638
                    6          7          8          9         10
     6  N    0.000000
     7  H    2.140450   0.000000
     8  H    2.096362   1.762889   0.000000
     9  H    1.008066   2.311733   2.638668   0.000000
    10  H    1.012597   2.659831   2.871701   1.644168   0.000000
 Stoichiometry    C2H5NO2
 Framework group  C1[X(C2H5NO2)]
 Deg. of freedom    24
 Full point group                 C1      NOp   1
 Largest Abelian subgroup         C1      NOp   1
 Largest concise Abelian subgroup C1      NOp   1
                         Standard orientation:                         
 ---------------------------------------------------------------------
 Center     Atomic      Atomic             Coordinates (Angstroms)
 Number     Number       Type             X           Y           Z
 ---------------------------------------------------------------------
      1          6           0        0.546143    0.148212    0.012628
      2          8           0        1.729714   -0.499968   -0.044362
      3          8           0        0.511357    1.343991    0.036745
      4          1           0        1.592593   -1.450896   -0.085742
      5          6           0       -0.679769   -0.738038    0.076616
      6          7           0       -1.874850    0.037759   -0.172157
      7          1           0       -0.657798   -1.217003    1.063110
      8          1           0       -0.576213   -1.530916   -0.669685
      9          1           0       -2.658726   -0.288884    0.371019
     10          1           0       -1.702724    1.010149    0.051861
 ---------------------------------------------------------------------
 Rotational constants (GHZ):          10.3415312           4.0158603           2.9691541
 Leave Link  202 at Fri Jan 15 10:33:01 2021, MaxMem= 13421772800 cpu:               1.0 elap:               0.1
 (Enter /data2/software/Gaussian/g16_from_xuruiqin/g16/l301.exe)
 Standard basis: Jun-CC-pVQZ (5D, 7F)
 Ernie: Thresh=  0.10000D-02 Tol=  0.10000D-05 Strict=F.
 Ernie:  15 primitive shells out of 245 were deleted.
 There are   625 symmetry adapted cartesian basis functions of A   symmetry.
 There are   505 symmetry adapted basis functions of A   symmetry.
   505 basis functions,   730 primitive gaussians,   625 cartesian basis functions
    20 alpha electrons       20 beta electrons
       nuclear repulsion energy       180.5379066758 Hartrees.
 IExCor=    0 DFT=F Ex=HF Corr=None ExCW=0 ScaHFX=  1.000000
 ScaDFX=  1.000000  1.000000  1.000000  1.000000 ScalE2=  1.000000  1.000000
 IRadAn=      5 IRanWt=     -1 IRanGd=            0 ICorTp=0 IEmpDi=  4
 NAtoms=   10 NActive=   10 NUniq=   10 SFac= 1.00D+00 NAtFMM=   60 NAOKFM=F Big=F
 Integral buffers will be    131072 words long.
 Raffenetti 1 integral format.
 Two-electron integral symmetry is turned on.
 Leave Link  301 at Fri Jan 15 10:33:01 2021, MaxMem= 13421772800 cpu:               2.1 elap:               0.1
 (Enter /data2/software/Gaussian/g16_from_xuruiqin/g16/l302.exe)
 NPDir=0 NMtPBC=     1 NCelOv=     1 NCel=       1 NClECP=     1 NCelD=      1
         NCelK=      1 NCelE2=     1 NClLst=     1 CellRange=     0.0.
 One-electron integrals computed using PRISM.
 One-electron integral symmetry used in STVInt
 NBasis=   505 RedAO= T EigKep=  8.73D-06  NBF=   505
 NBsUse=   505 1.00D-06 EigRej= -1.00D+00 NBFU=   505
 Leave Link  302 at Fri Jan 15 10:33:02 2021, MaxMem= 13421772800 cpu:              14.2 elap:               0.6
 (Enter /data2/software/Gaussian/g16_from_xuruiqin/g16/l303.exe)
 DipDrv:  MaxL=1.
 Leave Link  303 at Fri Jan 15 10:33:02 2021, MaxMem= 13421772800 cpu:               2.0 elap:               0.1
 (Enter /data2/software/Gaussian/g16_from_xuruiqin/g16/l401.exe)
 ExpMin= 3.22D-02 ExpMax= 6.14D+04 ExpMxC= 5.91D+02 IAcc=3 IRadAn=         5 AccDes= 0.00D+00
 Harris functional with IExCor=  205 and IRadAn=       5 diagonalized for initial guess.
 HarFok:  IExCor=  205 AccDes= 0.00D+00 IRadAn=         5 IDoV= 1 UseB2=F ITyADJ=14
 ICtDFT=  3500011 ScaDFX=  1.000000  1.000000  1.000000  1.000000
 FoFCou: FMM=F IPFlag=           0 FMFlag=      100000 FMFlg1=           0
         NFxFlg=           0 DoJE=T BraDBF=F KetDBF=T FulRan=T
         wScrn=  0.000000 ICntrl=       500 IOpCl=  0 I1Cent=   200000004 NGrid=           0
         NMat0=    1 NMatS0=      1 NMatT0=    0 NMatD0=    1 NMtDS0=    0 NMtDT0=    0
 Petite list used in FoFCou.
 Harris En= -283.246895761853    
 JPrj=0 DoOrth=F DoCkMO=F.
 Leave Link  401 at Fri Jan 15 10:33:03 2021, MaxMem= 13421772800 cpu:              26.8 elap:               1.0
 (Enter /data2/software/Gaussian/g16_from_xuruiqin/g16/l502.exe)
 Keep R1 ints in memory in canonical form, NReq=8284670918.
 FoFCou: FMM=F IPFlag=           0 FMFlag=           0 FMFlg1=           0
         NFxFlg=           0 DoJE=F BraDBF=F KetDBF=F FulRan=T
         wScrn=  0.000000 ICntrl=       600 IOpCl=  0 I1Cent=           0 NGrid=           0
         NMat0=    1 NMatS0= 127765 NMatT0=    0 NMatD0=    1 NMtDS0=    0 NMtDT0=    0
 Symmetry not used in FoFCou.
 Two-electron integral symmetry not used.
 Closed shell SCF:
 Using DIIS extrapolation, IDIIS=  1040.
 NGot= 13421772800 LenX=  5258957449 LenY=  5258566199
 Requested convergence on RMS density matrix=1.00D-08 within 128 cycles.
 Requested convergence on MAX density matrix=1.00D-06.
 Requested convergence on             energy=1.00D-06.
 No special actions if energy rises.

 Cycle   1  Pass 1  IDiag  1:
 E= -282.711851191493    
 DIIS: error= 2.11D-02 at cycle   1 NSaved=   1.
 NSaved= 1 IEnMin= 1 EnMin= -282.711851191493     IErMin= 1 ErrMin= 2.11D-02
 ErrMax= 2.11D-02  0.00D+00 EMaxC= 1.00D-01 BMatC= 6.57D-01 BMatP= 6.57D-01
 IDIUse=3 WtCom= 7.89D-01 WtEn= 2.11D-01
 Coeff-Com:  0.100D+01
 Coeff-En:   0.100D+01
 Coeff:      0.100D+01
 Gap=     0.511 Goal=   None    Shift=    0.000
 GapD=    0.511 DampG=2.000 DampE=0.500 DampFc=1.0000 IDamp=-1.
 RMSDP=9.01D-04 MaxDP=7.63D-02              OVMax= 1.29D-01

 Cycle   2  Pass 1  IDiag  1:
 E= -282.898303951654     Delta-E=       -0.186452760161 Rises=F Damp=F
 DIIS: error= 1.44D-02 at cycle   2 NSaved=   2.
 NSaved= 2 IEnMin= 2 EnMin= -282.898303951654     IErMin= 2 ErrMin= 1.44D-02
 ErrMax= 1.44D-02  0.00D+00 EMaxC= 1.00D-01 BMatC= 8.89D-02 BMatP= 6.57D-01
 IDIUse=3 WtCom= 8.56D-01 WtEn= 1.44D-01
 Coeff-Com:  0.199D+00 0.801D+00
 Coeff-En:   0.000D+00 0.100D+01
 Coeff:      0.170D+00 0.830D+00
 Gap=     0.479 Goal=   None    Shift=    0.000
 RMSDP=3.62D-04 MaxDP=2.89D-02 DE=-1.86D-01 OVMax= 6.06D-02

 Cycle   3  Pass 1  IDiag  1:
 E= -282.950071279088     Delta-E=       -0.051767327434 Rises=F Damp=F
 DIIS: error= 4.30D-03 at cycle   3 NSaved=   3.
 NSaved= 3 IEnMin= 3 EnMin= -282.950071279088     IErMin= 3 ErrMin= 4.30D-03
 ErrMax= 4.30D-03  0.00D+00 EMaxC= 1.00D-01 BMatC= 1.35D-02 BMatP= 8.89D-02
 IDIUse=3 WtCom= 9.57D-01 WtEn= 4.30D-02
 Coeff-Com: -0.232D-01 0.254D+00 0.769D+00
 Coeff-En:   0.000D+00 0.000D+00 0.100D+01
 Coeff:     -0.222D-01 0.243D+00 0.779D+00
 Gap=     0.446 Goal=   None    Shift=    0.000
 RMSDP=9.37D-05 MaxDP=8.25D-03 DE=-5.18D-02 OVMax= 2.91D-02

 Cycle   4  Pass 1  IDiag  1:
 E= -282.958629371320     Delta-E=       -0.008558092232 Rises=F Damp=F
 DIIS: error= 1.48D-03 at cycle   4 NSaved=   4.
 NSaved= 4 IEnMin= 4 EnMin= -282.958629371320     IErMin= 4 ErrMin= 1.48D-03
 ErrMax= 1.48D-03  0.00D+00 EMaxC= 1.00D-01 BMatC= 4.17D-04 BMatP= 1.35D-02
 IDIUse=3 WtCom= 9.85D-01 WtEn= 1.48D-02
 Coeff-Com: -0.108D-01 0.576D-01 0.240D+00 0.714D+00
 Coeff-En:   0.000D+00 0.000D+00 0.000D+00 0.100D+01
 Coeff:     -0.106D-01 0.568D-01 0.236D+00 0.718D+00
 Gap=     0.440 Goal=   None    Shift=    0.000
 RMSDP=2.08D-05 MaxDP=1.65D-03 DE=-8.56D-03 OVMax= 5.25D-03

 Cycle   5  Pass 1  IDiag  1:
 E= -282.958986152646     Delta-E=       -0.000356781326 Rises=F Damp=F
 DIIS: error= 2.85D-04 at cycle   5 NSaved=   5.
 NSaved= 5 IEnMin= 5 EnMin= -282.958986152646     IErMin= 5 ErrMin= 2.85D-04
 ErrMax= 2.85D-04  0.00D+00 EMaxC= 1.00D-01 BMatC= 3.06D-05 BMatP= 4.17D-04
 IDIUse=3 WtCom= 9.97D-01 WtEn= 2.85D-03
 Coeff-Com:  0.214D-02-0.254D-01-0.821D-01 0.298D-01 0.108D+01
 Coeff-En:   0.000D+00 0.000D+00 0.000D+00 0.000D+00 0.100D+01
 Coeff:      0.214D-02-0.253D-01-0.819D-01 0.297D-01 0.108D+01
 Gap=     0.442 Goal=   None    Shift=    0.000
 RMSDP=1.19D-05 MaxDP=7.23D-04 DE=-3.57D-04 OVMax= 3.91D-03

 Cycle   6  Pass 1  IDiag  1:
 E= -282.959044399838     Delta-E=       -0.000058247191 Rises=F Damp=F
 DIIS: error= 9.91D-05 at cycle   6 NSaved=   6.
 NSaved= 6 IEnMin= 6 EnMin= -282.959044399838     IErMin= 6 ErrMin= 9.91D-05
 ErrMax= 9.91D-05  0.00D+00 EMaxC= 1.00D-01 BMatC= 4.29D-06 BMatP= 3.06D-05
 IDIUse=1 WtCom= 1.00D+00 WtEn= 0.00D+00
 Coeff-Com:  0.138D-02-0.106D-01-0.372D-01-0.748D-01 0.185D+00 0.937D+00
 Coeff:      0.138D-02-0.106D-01-0.372D-01-0.748D-01 0.185D+00 0.937D+00
 Gap=     0.442 Goal=   None    Shift=    0.000
 RMSDP=4.60D-06 MaxDP=2.72D-04 DE=-5.82D-05 OVMax= 1.13D-03

 Cycle   7  Pass 1  IDiag  1:
 E= -282.959052460910     Delta-E=       -0.000008061072 Rises=F Damp=F
 DIIS: error= 3.65D-05 at cycle   7 NSaved=   7.
 NSaved= 7 IEnMin= 7 EnMin= -282.959052460910     IErMin= 7 ErrMin= 3.65D-05
 ErrMax= 3.65D-05  0.00D+00 EMaxC= 1.00D-01 BMatC= 5.72D-07 BMatP= 4.29D-06
 IDIUse=1 WtCom= 1.00D+00 WtEn= 0.00D+00
 Coeff-Com: -0.206D-03 0.279D-02 0.110D-01-0.146D-01-0.124D+00 0.125D-01
 Coeff-Com:  0.111D+01
 Coeff:     -0.206D-03 0.279D-02 0.110D-01-0.146D-01-0.124D+00 0.125D-01
 Coeff:      0.111D+01
 Gap=     0.442 Goal=   None    Shift=    0.000
 RMSDP=1.84D-06 MaxDP=1.26D-04 DE=-8.06D-06 OVMax= 7.55D-04

 Cycle   8  Pass 1  IDiag  1:
 E= -282.959053942879     Delta-E=       -0.000001481969 Rises=F Damp=F
 DIIS: error= 1.36D-05 at cycle   8 NSaved=   8.
 NSaved= 8 IEnMin= 8 EnMin= -282.959053942879     IErMin= 8 ErrMin= 1.36D-05
 ErrMax= 1.36D-05  0.00D+00 EMaxC= 1.00D-01 BMatC= 7.98D-08 BMatP= 5.72D-07
 IDIUse=1 WtCom= 1.00D+00 WtEn= 0.00D+00
 Coeff-Com: -0.169D-03 0.123D-02 0.450D-02 0.614D-02-0.768D-02-0.121D+00
 Coeff-Com: -0.104D+00 0.122D+01
 Coeff:     -0.169D-03 0.123D-02 0.450D-02 0.614D-02-0.768D-02-0.121D+00
 Coeff:     -0.104D+00 0.122D+01
 Gap=     0.442 Goal=   None    Shift=    0.000
 RMSDP=7.54D-07 MaxDP=5.55D-05 DE=-1.48D-06 OVMax= 3.09D-04

 Cycle   9  Pass 1  IDiag  1:
 E= -282.959054159253     Delta-E=       -0.000000216374 Rises=F Damp=F
 DIIS: error= 4.14D-06 at cycle   9 NSaved=   9.
 NSaved= 9 IEnMin= 9 EnMin= -282.959054159253     IErMin= 9 ErrMin= 4.14D-06
 ErrMax= 4.14D-06  0.00D+00 EMaxC= 1.00D-01 BMatC= 1.06D-08 BMatP= 7.98D-08
 IDIUse=1 WtCom= 1.00D+00 WtEn= 0.00D+00
 Coeff-Com: -0.818D-05-0.105D-03-0.415D-03 0.223D-02 0.160D-01-0.264D-01
 Coeff-Com: -0.158D+00 0.235D+00 0.932D+00
 Coeff:     -0.818D-05-0.105D-03-0.415D-03 0.223D-02 0.160D-01-0.264D-01
 Coeff:     -0.158D+00 0.235D+00 0.932D+00
 Gap=     0.442 Goal=   None    Shift=    0.000
 RMSDP=2.22D-07 MaxDP=1.60D-05 DE=-2.16D-07 OVMax= 8.93D-05

 Cycle  10  Pass 1  IDiag  1:
 E= -282.959054180522     Delta-E=       -0.000000021269 Rises=F Damp=F
 DIIS: error= 1.60D-06 at cycle  10 NSaved=  10.
 NSaved=10 IEnMin=10 EnMin= -282.959054180522     IErMin=10 ErrMin= 1.60D-06
 ErrMax= 1.60D-06  0.00D+00 EMaxC= 1.00D-01 BMatC= 1.16D-09 BMatP= 1.06D-08
 IDIUse=1 WtCom= 1.00D+00 WtEn= 0.00D+00
 Coeff-Com:  0.249D-04-0.200D-03-0.674D-03-0.124D-02 0.235D-02 0.168D-01
 Coeff-Com:  0.133D-01-0.183D+00 0.299D-01 0.112D+01
 Coeff:      0.249D-04-0.200D-03-0.674D-03-0.124D-02 0.235D-02 0.168D-01
 Coeff:      0.133D-01-0.183D+00 0.299D-01 0.112D+01
 Gap=     0.442 Goal=   None    Shift=    0.000
 RMSDP=9.40D-08 MaxDP=6.45D-06 DE=-2.13D-08 OVMax= 2.90D-05

 Cycle  11  Pass 1  IDiag  1:
 E= -282.959054183186     Delta-E=       -0.000000002664 Rises=F Damp=F
 DIIS: error= 3.11D-07 at cycle  11 NSaved=  11.
 NSaved=11 IEnMin=11 EnMin= -282.959054183186     IErMin=11 ErrMin= 3.11D-07
 ErrMax= 3.11D-07  0.00D+00 EMaxC= 1.00D-01 BMatC= 6.58D-11 BMatP= 1.16D-09
 IDIUse=1 WtCom= 1.00D+00 WtEn= 0.00D+00
 Coeff-Com: -0.748D-06 0.157D-04 0.841D-04-0.871D-04-0.102D-02-0.991D-04
 Coeff-Com:  0.931D-02 0.341D-02-0.709D-01-0.132D+00 0.119D+01
 Coeff:     -0.748D-06 0.157D-04 0.841D-04-0.871D-04-0.102D-02-0.991D-04
 Coeff:      0.931D-02 0.341D-02-0.709D-01-0.132D+00 0.119D+01
 Gap=     0.442 Goal=   None    Shift=    0.000
 RMSDP=2.45D-08 MaxDP=1.31D-06 DE=-2.66D-09 OVMax= 5.19D-06

 Cycle  12  Pass 1  IDiag  1:
 E= -282.959054183337     Delta-E=       -0.000000000151 Rises=F Damp=F
 DIIS: error= 1.10D-07 at cycle  12 NSaved=  12.
 NSaved=12 IEnMin=12 EnMin= -282.959054183337     IErMin=12 ErrMin= 1.10D-07
 ErrMax= 1.10D-07  0.00D+00 EMaxC= 1.00D-01 BMatC= 3.61D-12 BMatP= 6.58D-11
 IDIUse=1 WtCom= 1.00D+00 WtEn= 0.00D+00
 Coeff-Com: -0.158D-05 0.124D-04 0.426D-04 0.777D-04-0.114D-03-0.113D-02
 Coeff-Com: -0.153D-02 0.136D-01-0.640D-03-0.722D-01-0.300D-01 0.109D+01
 Coeff:     -0.158D-05 0.124D-04 0.426D-04 0.777D-04-0.114D-03-0.113D-02
 Coeff:     -0.153D-02 0.136D-01-0.640D-03-0.722D-01-0.300D-01 0.109D+01
 Gap=     0.442 Goal=   None    Shift=    0.000
 RMSDP=5.92D-09 MaxDP=2.58D-07 DE=-1.51D-10 OVMax= 1.01D-06

 SCF Done:  E(RHF) =  -282.959054183     A.U. after   12 cycles
            NFock= 12  Conv=0.59D-08     -V/T= 2.0011
 KE= 2.826571649070D+02 PE=-1.027376052852D+03 EE= 2.812219270858D+02
 Leave Link  502 at Fri Jan 15 10:36:22 2021, MaxMem= 13421772800 cpu:            1106.7 elap:             198.1
 (Enter /data2/software/Gaussian/g16_from_xuruiqin/g16/l801.exe)
 ExpMin= 3.22D-02 ExpMax= 6.14D+04 ExpMxC= 5.91D+02 IAcc=3 IRadAn=         5 AccDes= 0.00D+00
 HarFok:  IExCor=  205 AccDes= 0.00D+00 IRadAn=         5 IDoV=-2 UseB2=F ITyADJ=14
 ICtDFT= 12500011 ScaDFX=  1.000000  1.000000  1.000000  1.000000
 DSYEVD-2 returned Info=        2663 IAlg= 4 N=    71 NDim=    71 NE2=   189027758 trying  DSYEV.
 DSYEVD-2 returned Info=        2663 IAlg= 4 N=    71 NDim=    71 NE2=   189027758 trying  DSYEV.
 Largest valence mixing into a core orbital is  1.87D-04
 Largest core mixing into a valence orbital is  3.00D-05
 Range of M.O.s used for correlation:     6   505
 NBasis=   505 NAE=    20 NBE=    20 NFC=     5 NFV=     0
 NROrb=    500 NOA=    15 NOB=    15 NVA=   485 NVB=   485

 **** Warning!!: The largest alpha MO coefficient is  0.55657723D+02

 Leave Link  801 at Fri Jan 15 10:36:23 2021, MaxMem= 13421772800 cpu:               5.8 elap:               0.3
 (Enter /data2/software/Gaussian/g16_from_xuruiqin/g16/l906.exe)
 FulOut=F Deriv=F AODrv=F NAtomX=    10
   MMem=          99  MDisk=          15 MDiskD=          15
  W3Min=     4546875 MinDsk=     6899000 NBas6D=         625
 NBas2D=      197620    NTT=      195625    LW2=     4508827
    MDV= 13420620514 MDiskM=       47710 NBas2p=      190568
 Fully direct method using O(OVN) memory.
 IMap=   1   2   3   4   5   6   7   8   9  10  11  12  13  14  15
 JobTyp=1 Pass  1:  I=   1 to  15 NPSUse= 28 ParTrn=T ParDer=T DoDerP=F.
 Spin components of T(2) and E(2):
     alpha-alpha T2 =       0.3661725344D-01 E2=     -0.1327671036D+00
     alpha-beta  T2 =       0.2055147196D+00 E2=     -0.8222667165D+00
     beta-beta   T2 =       0.3661725344D-01 E2=     -0.1327671036D+00
 The integrals were generated   1 times.
 ANorm=    0.1130817946D+01
 E2 =    -0.1087800924D+01 EUMP2 =    -0.28404685510698D+03
 Leave Link  906 at Fri Jan 15 10:40:17 2021, MaxMem= 13421772800 cpu:            6555.3 elap:             234.0
 (Enter /data2/software/Gaussian/g16_from_xuruiqin/g16/l601.exe)
 Copying SCF densities to generalized density rwf, IOpCl= 0 IROHF=0.

 **********************************************************************

            Population analysis using the SCF Density.

 **********************************************************************

 Orbital symmetries:
       Occupied  (A) (A) (A) (A) (A) (A) (A) (A) (A) (A) (A) (A)
                 (A) (A) (A) (A) (A) (A) (A) (A)
       Virtual   (A) (A) (A) (A) (A) (A) (A) (A) (A) (A) (A) (A)
                 (A) (A) (A) (A) (A) (A) (A) (A) (A) (A) (A) (A)
                 (A) (A) (A) (A) (A) (A) (A) (A) (A) (A) (A) (A)
                 (A) (A) (A) (A) (A) (A) (A) (A) (A) (A) (A) (A)
                 (A) (A) (A) (A) (A) (A) (A) (A) (A) (A) (A) (A)
                 (A) (A) (A) (A) (A) (A) (A) (A) (A) (A) (A) (A)
                 (A) (A) (A) (A) (A) (A) (A) (A) (A) (A) (A) (A)
                 (A) (A) (A) (A) (A) (A) (A) (A) (A) (A) (A) (A)
                 (A) (A) (A) (A) (A) (A) (A) (A) (A) (A) (A) (A)
                 (A) (A) (A) (A) (A) (A) (A) (A) (A) (A) (A) (A)
                 (A) (A) (A) (A) (A) (A) (A) (A) (A) (A) (A) (A)
                 (A) (A) (A) (A) (A) (A) (A) (A) (A) (A) (A) (A)
                 (A) (A) (A) (A) (A) (A) (A) (A) (A) (A) (A) (A)
                 (A) (A) (A) (A) (A) (A) (A) (A) (A) (A) (A) (A)
                 (A) (A) (A) (A) (A) (A) (A) (A) (A) (A) (A) (A)
                 (A) (A) (A) (A) (A) (A) (A) (A) (A) (A) (A) (A)
                 (A) (A) (A) (A) (A) (A) (A) (A) (A) (A) (A) (A)
                 (A) (A) (A) (A) (A) (A) (A) (A) (A) (A) (A) (A)
                 (A) (A) (A) (A) (A) (A) (A) (A) (A) (A) (A) (A)
                 (A) (A) (A) (A) (A) (A) (A) (A) (A) (A) (A) (A)
                 (A) (A) (A) (A) (A) (A) (A) (A) (A) (A) (A) (A)
                 (A) (A) (A) (A) (A) (A) (A) (A) (A) (A) (A) (A)
                 (A) (A) (A) (A) (A) (A) (A) (A) (A) (A) (A) (A)
                 (A) (A) (A) (A) (A) (A) (A) (A) (A) (A) (A) (A)
                 (A) (A) (A) (A) (A) (A) (A) (A) (A) (A) (A) (A)
                 (A) (A) (A) (A) (A) (A) (A) (A) (A) (A) (A) (A)
                 (A) (A) (A) (A) (A) (A) (A) (A) (A) (A) (A) (A)
                 (A) (A) (A) (A) (A) (A) (A) (A) (A) (A) (A) (A)
                 (A) (A) (A) (A) (A) (A) (A) (A) (A) (A) (A) (A)
                 (A) (A) (A) (A) (A) (A) (A) (A) (A) (A) (A) (A)
                 (A) (A) (A) (A) (A) (A) (A) (A) (A) (A) (A) (A)
                 (A) (A) (A) (A) (A) (A) (A) (A) (A) (A) (A) (A)
                 (A) (A) (A) (A) (A) (A) (A) (A) (A) (A) (A) (A)
                 (A) (A) (A) (A) (A) (A) (A) (A) (A) (A) (A) (A)
                 (A) (A) (A) (A) (A) (A) (A) (A) (A) (A) (A) (A)
                 (A) (A) (A) (A) (A) (A) (A) (A) (A) (A) (A) (A)
                 (A) (A) (A) (A) (A) (A) (A) (A) (A) (A) (A) (A)
                 (A) (A) (A) (A) (A) (A) (A) (A) (A) (A) (A) (A)
                 (A) (A) (A) (A) (A) (A) (A) (A) (A) (A) (A) (A)
                 (A) (A) (A) (A) (A) (A) (A) (A) (A) (A) (A) (A)
                 (A) (A) (A) (A) (A)
 The electronic state is 1-A.
 Alpha  occ. eigenvalues --  -20.61946 -20.55090 -15.55240 -11.39049 -11.28944
 Alpha  occ. eigenvalues --   -1.47155  -1.37588  -1.20132  -0.97768  -0.83669
 Alpha  occ. eigenvalues --   -0.74612  -0.68211  -0.67392  -0.65561  -0.60262
 Alpha  occ. eigenvalues --   -0.58463  -0.56472  -0.49012  -0.46093  -0.41092
 Alpha virt. eigenvalues --    0.03114   0.04781   0.05946   0.06141   0.08677
 Alpha virt. eigenvalues --    0.08856   0.09146   0.10654   0.11812   0.13989
 Alpha virt. eigenvalues --    0.14506   0.15485   0.16140   0.16639   0.18081
 Alpha virt. eigenvalues --    0.19857   0.20107   0.20604   0.21661   0.21821
 Alpha virt. eigenvalues --    0.23293   0.23729   0.24458   0.25289   0.27260
 Alpha virt. eigenvalues --    0.28217   0.29821   0.30423   0.32288   0.33586
 Alpha virt. eigenvalues --    0.34119   0.35832   0.36422   0.37408   0.39271
 Alpha virt. eigenvalues --    0.40612   0.41376   0.42580   0.43266   0.44792
 Alpha virt. eigenvalues --    0.45732   0.47069   0.48542   0.49245   0.50352
 Alpha virt. eigenvalues --    0.51431   0.53506   0.54177   0.56303   0.56499
 Alpha virt. eigenvalues --    0.57746   0.58704   0.59851   0.61188   0.62105
 Alpha virt. eigenvalues --    0.63649   0.64059   0.64460   0.66423   0.67678
 Alpha virt. eigenvalues --    0.68248   0.69018   0.70764   0.72465   0.73455
 Alpha virt. eigenvalues --    0.73620   0.76762   0.77307   0.79335   0.80659
 Alpha virt. eigenvalues --    0.82786   0.83716   0.84755   0.86170   0.86459
 Alpha virt. eigenvalues --    0.88405   0.90776   0.92135   0.92317   0.95195
 Alpha virt. eigenvalues --    0.97364   0.99463   1.00158   1.00745   1.01661
 Alpha virt. eigenvalues --    1.03828   1.04158   1.06912   1.09126   1.09882
 Alpha virt. eigenvalues --    1.10495   1.12626   1.13120   1.15222   1.17456
 Alpha virt. eigenvalues --    1.17588   1.19052   1.21030   1.22005   1.23121
 Alpha virt. eigenvalues --    1.25250   1.27112   1.28245   1.30359   1.31035
 Alpha virt. eigenvalues --    1.31797   1.34041   1.35232   1.35736   1.37600
 Alpha virt. eigenvalues --    1.39349   1.41647   1.42329   1.43342   1.44809
 Alpha virt. eigenvalues --    1.49132   1.50385   1.53139   1.53968   1.55955
 Alpha virt. eigenvalues --    1.58571   1.59325   1.61433   1.63690   1.66711
 Alpha virt. eigenvalues --    1.67326   1.68377   1.68655   1.70407   1.71277
 Alpha virt. eigenvalues --    1.72629   1.73963   1.75046   1.77481   1.80126
 Alpha virt. eigenvalues --    1.82246   1.83292   1.84280   1.86361   1.88703
 Alpha virt. eigenvalues --    1.89945   1.91183   1.94369   1.97863   1.99527
 Alpha virt. eigenvalues --    2.00329   2.01399   2.03378   2.04762   2.06078
 Alpha virt. eigenvalues --    2.06317   2.09343   2.11162   2.11936   2.16337
 Alpha virt. eigenvalues --    2.17991   2.19647   2.22561   2.22963   2.27392
 Alpha virt. eigenvalues --    2.31189   2.33443   2.34648   2.36390   2.38914
 Alpha virt. eigenvalues --    2.40591   2.43902   2.44827   2.46148   2.46648
 Alpha virt. eigenvalues --    2.51353   2.54248   2.55616   2.59333   2.63730
 Alpha virt. eigenvalues --    2.64492   2.67510   2.69969   2.70599   2.73423
 Alpha virt. eigenvalues --    2.74881   2.76374   2.78919   2.81086   2.82295
 Alpha virt. eigenvalues --    2.83271   2.85500   2.86400   2.88097   2.90121
 Alpha virt. eigenvalues --    2.91746   2.95583   2.96502   2.97904   2.98949
 Alpha virt. eigenvalues --    3.01976   3.03377   3.06010   3.08000   3.09508
 Alpha virt. eigenvalues --    3.10266   3.12769   3.16407   3.21084   3.22903
 Alpha virt. eigenvalues --    3.25972   3.28406   3.29918   3.31350   3.32797
 Alpha virt. eigenvalues --    3.36611   3.37324   3.41206   3.42549   3.44519
 Alpha virt. eigenvalues --    3.47664   3.49273   3.57061   3.59386   3.60810
 Alpha virt. eigenvalues --    3.62231   3.63772   3.67381   3.68636   3.70855
 Alpha virt. eigenvalues --    3.73037   3.80783   3.83203   3.84450   3.87902
 Alpha virt. eigenvalues --    3.90230   3.93758   3.98184   4.00794   4.01543
 Alpha virt. eigenvalues --    4.04554   4.08047   4.09931   4.14665   4.15904
 Alpha virt. eigenvalues --    4.19302   4.23788   4.26486   4.30699   4.31506
 Alpha virt. eigenvalues --    4.34749   4.35925   4.41288   4.41810   4.43394
 Alpha virt. eigenvalues --    4.45478   4.48460   4.52265   4.54018   4.58433
 Alpha virt. eigenvalues --    4.60601   4.62153   4.64965   4.67124   4.71788
 Alpha virt. eigenvalues --    4.73999   4.78216   4.81349   4.83374   4.85969
 Alpha virt. eigenvalues --    4.89913   4.92380   4.94344   4.99137   5.02870
 Alpha virt. eigenvalues --    5.07050   5.08825   5.10073   5.15758   5.17983
 Alpha virt. eigenvalues --    5.50972   5.52797   5.56407   5.59971   5.63290
 Alpha virt. eigenvalues --    5.70738   5.79842   5.89529   5.94674   5.97663
 Alpha virt. eigenvalues --    6.00765   6.05124   6.11070   6.13220   6.13919
 Alpha virt. eigenvalues --    6.16397   6.19628   6.22917   6.25941   6.27312
 Alpha virt. eigenvalues --    6.29468   6.33703   6.35860   6.37461   6.40432
 Alpha virt. eigenvalues --    6.41811   6.47632   6.49840   6.52123   6.55092
 Alpha virt. eigenvalues --    6.57553   6.62873   6.65944   6.68994   6.72569
 Alpha virt. eigenvalues --    6.76782   6.79025   6.80945   6.82323   6.84177
 Alpha virt. eigenvalues --    6.90138   6.92640   6.94177   6.98926   7.00169
 Alpha virt. eigenvalues --    7.10598   7.14855   7.15467   7.18638   7.21691
 Alpha virt. eigenvalues --    7.26314   7.30073   7.35006   7.36194   7.37410
 Alpha virt. eigenvalues --    7.41659   7.44042   7.46658   7.52273   7.54729
 Alpha virt. eigenvalues --    7.55333   7.63105   7.63605   7.66627   7.68381
 Alpha virt. eigenvalues --    7.72441   7.74513   7.77845   7.81040   7.81790
 Alpha virt. eigenvalues --    7.85330   7.88222   7.90000   7.97865   8.06276
 Alpha virt. eigenvalues --    8.10795   8.12961   8.15073   8.20967   8.21757
 Alpha virt. eigenvalues --    8.24205   8.27670   8.29890   8.32722   8.33779
 Alpha virt. eigenvalues --    8.38628   8.39605   8.41938   8.46500   8.50425
 Alpha virt. eigenvalues --    8.52414   8.52773   8.55416   8.57054   8.59438
 Alpha virt. eigenvalues --    8.61810   8.66685   8.70926   8.72522   8.74173
 Alpha virt. eigenvalues --    8.77312   8.81593   8.82442   8.84813   8.87475
 Alpha virt. eigenvalues --    8.88667   8.95919   8.97649   9.01897   9.05962
 Alpha virt. eigenvalues --    9.09938   9.14871   9.16979   9.17985   9.20861
 Alpha virt. eigenvalues --    9.24346   9.27820   9.31451   9.34235   9.38452
 Alpha virt. eigenvalues --    9.38904   9.40348   9.42710   9.45331   9.49842
 Alpha virt. eigenvalues --    9.52119   9.53268   9.55978   9.63250   9.69553
 Alpha virt. eigenvalues --    9.72491   9.76393   9.80612   9.82911   9.86242
 Alpha virt. eigenvalues --    9.94820  10.04708  10.11112  10.17902  10.26535
 Alpha virt. eigenvalues --   10.30500  10.35003  10.41557  10.48156  10.49192
 Alpha virt. eigenvalues --   10.50986  10.55768  10.59931  10.64962  10.69034
 Alpha virt. eigenvalues --   10.72721  10.79740  10.81862  10.85731  10.90652
 Alpha virt. eigenvalues --   10.96483  11.01647  11.07207  11.10694  11.22094
 Alpha virt. eigenvalues --   11.34292  11.39334  11.42785  11.48158  11.60444
 Alpha virt. eigenvalues --   11.68264  11.85937  11.96483  11.99638  12.04781
 Alpha virt. eigenvalues --   12.05654  12.10457  12.16578  12.17920  12.22311
 Alpha virt. eigenvalues --   12.23600  12.27054  12.29185  12.31573  12.37008
 Alpha virt. eigenvalues --   12.43252  12.46857  12.50134  12.53936  12.56844
 Alpha virt. eigenvalues --   12.61709  12.86572  12.97010  12.99581  13.06531
 Alpha virt. eigenvalues --   13.08890  13.10649  13.26552  13.32993  13.72584
 Alpha virt. eigenvalues --   13.84016  14.00405  14.31848  14.40862  14.43001
 Alpha virt. eigenvalues --   14.59916  14.80732  14.93335  14.96490  17.02093
 Alpha virt. eigenvalues --   25.54662  26.84817  35.20322  43.61471  44.69827
          Condensed to atoms (all electrons):
               1          2          3          4          5          6
     1  C    4.335347   0.243730   0.439387  -0.033563   0.336074  -0.038040
     2  O    0.243730   8.183151  -0.078296   0.270432  -0.051097   0.007285
     3  O    0.439387  -0.078296   8.261287   0.006975  -0.022854  -0.025263
     4  H   -0.033563   0.270432   0.006975   0.456932   0.009665   0.001237
     5  C    0.336074  -0.051097  -0.022854   0.009665   4.812735   0.205511
     6  N   -0.038040   0.007285  -0.025263   0.001237   0.205511   6.865390
     7  H   -0.010102  -0.007356  -0.001076   0.000861   0.426556  -0.019013
     8  H   -0.023386  -0.010103   0.001001  -0.000517   0.468135  -0.068433
     9  H    0.012587  -0.000280  -0.001545  -0.000128  -0.025775   0.358763
    10  H   -0.008677  -0.000507   0.001265  -0.000092   0.000679   0.338327
               7          8          9         10
     1  C   -0.010102  -0.023386   0.012587  -0.008677
     2  O   -0.007356  -0.010103  -0.000280  -0.000507
     3  O   -0.001076   0.001001  -0.001545   0.001265
     4  H    0.000861  -0.000517  -0.000128  -0.000092
     5  C    0.426556   0.468135  -0.025775   0.000679
     6  N   -0.019013  -0.068433   0.358763   0.338327
     7  H    0.385083   0.006513  -0.010782   0.001064
     8  H    0.006513   0.397373   0.001268   0.005273
     9  H   -0.010782   0.001268   0.496215  -0.020770
    10  H    0.001064   0.005273  -0.020770   0.436622
 Mulliken charges:
               1
     1  C    0.746645
     2  O   -0.556960
     3  O   -0.580882
     4  H    0.288197
     5  C   -0.159628
     6  N   -0.625764
     7  H    0.228253
     8  H    0.222877
     9  H    0.190446
    10  H    0.246816
 Sum of Mulliken charges =  -0.00000
 Mulliken charges with hydrogens summed into heavy atoms:
               1
     1  C    0.746645
     2  O   -0.268764
     3  O   -0.580882
     5  C    0.291502
     6  N   -0.188501
 Electronic spatial extent (au):  <R**2>=            414.7197
 Charge=             -0.0000 electrons
 Dipole moment (field-independent basis, Debye):
    X=             -1.2865    Y=             -4.1578    Z=              1.2843  Tot=              4.5378
 Quadrupole moment (field-independent basis, Debye-Ang):
   XX=            -31.2961   YY=            -28.6266   ZZ=            -30.2760
   XY=             -3.5585   XZ=             -3.5612   YZ=              0.0315
 Traceless Quadrupole moment (field-independent basis, Debye-Ang):
   XX=             -1.2299   YY=              1.4397   ZZ=             -0.2098
   XY=             -3.5585   XZ=             -3.5612   YZ=              0.0315
 Octapole moment (field-independent basis, Debye-Ang**2):
  XXX=             -6.8554  YYY=            -10.3809  ZZZ=              1.7943  XYY=              2.1767
  XXY=             -3.9386  XXZ=              8.4145  XZZ=              3.6986  YZZ=             -0.6437
  YYZ=             -0.5434  XYZ=              0.6197
 Hexadecapole moment (field-independent basis, Debye-Ang**3):
 XXXX=           -313.9713 YYYY=           -135.8850 ZZZZ=            -37.0546 XXXY=             -6.4124
 XXXZ=            -22.7958 YYYX=            -18.9837 YYYZ=              1.6690 ZZZX=             -4.3862
 ZZZY=             -0.1067 XXYY=            -64.7971 XXZZ=            -66.0310 YYZZ=            -28.6663
 XXYZ=             -0.5511 YYXZ=             -1.6693 ZZXY=              0.4191
 N-N= 1.805379066758D+02 E-N=-1.027376055568D+03  KE= 2.826571649070D+02
 Leave Link  601 at Fri Jan 15 10:40:18 2021, MaxMem= 13421772800 cpu:               4.2 elap:               0.3
 (Enter /data2/software/Gaussian/g16_from_xuruiqin/g16/l9999.exe)
 Unable to Open any file for archive entry.
 1\1\GINC-CPU04\SP\RMP2-FC\Jun-CC-pVQZ\C2H5N1O2\SHUCHONG\15-Jan-2021\0\
 \#p mp2/jun-cc-pvqz\\VIII_SP\\0,1\C\O,1,1.3506392\O,1,1.1965287,2,120.
 3932146\H,2,0.96165486,1,110.5740242,3,-178.19299,0\C,1,1.51406482,3,1
 24.0964059,2,178.4170875,0\N,5,1.44636301,1,110.3514816,3,14.5342408,0
 \H,5,1.09684152,1,106.104928,3,-109.3302257,0\H,5,1.09377539,1,108.591
 649,3,135.7513316,0\H,6,1.00806641,5,112.0878145,1,-144.9571968,0\H,6,
 1.01259705,5,109.6684359,1,-23.85712294,0\\Version=ES64L-G16RevC.01\St
 ate=1-A\HF=-282.9590542\MP2=-284.0468551\RMSD=5.919e-09\PG=C01 [X(C2H5
 N1O2)]\\@
 The archive entry for this job was punched.


 Discoveries are often made by not following instructions,
 by going off the main road, by trying the untried.
 -- Frank Tyger
 Job cpu time:       0 days  2 hours  8 minutes 53.3 seconds.
 Elapsed time:       0 days  0 hours  7 minutes 15.3 seconds.
 File lengths (MBytes):  RWF=     98 Int=      0 D2E=      0 Chk=     18 Scr=      1
 Normal termination of Gaussian 16 at Fri Jan 15 10:40:19 2021.
