 Entering Gaussian System, Link 0=g16
 Input=gtt_Best_geom_HF_jun-cc-pV5Z.gjf
 Output=gtt_Best_geom_HF_jun-cc-pV5Z.log
 Initial command:
 /data2/software/Gaussian/g16_c01-gpu/g16/l1.exe "/home/shuchong/scratch/Gau-2684.inp" -scrdir="/home/shuchong/scratch/"
 Entering Link 1 = /data2/software/Gaussian/g16_c01-gpu/g16/l1.exe PID=      2685.
  
 Copyright (c) 1988-2019, Gaussian, Inc.  All Rights Reserved.
  
 This is part of the Gaussian(R) 16 program.  It is based on
 the Gaussian(R) 09 system (copyright 2009, Gaussian, Inc.),
 the Gaussian(R) 03 system (copyright 2003, Gaussian, Inc.),
 the Gaussian(R) 98 system (copyright 1998, Gaussian, Inc.),
 the Gaussian(R) 94 system (copyright 1995, Gaussian, Inc.),
 the Gaussian 92(TM) system (copyright 1992, Gaussian, Inc.),
 the Gaussian 90(TM) system (copyright 1990, Gaussian, Inc.),
 the Gaussian 88(TM) system (copyright 1988, Gaussian, Inc.),
 the Gaussian 86(TM) system (copyright 1986, Carnegie Mellon
 University), and the Gaussian 82(TM) system (copyright 1983,
 Carnegie Mellon University). Gaussian is a federally registered
 trademark of Gaussian, Inc.
  
 This software contains proprietary and confidential information,
 including trade secrets, belonging to Gaussian, Inc.
  
 This software is provided under written license and may be
 used, copied, transmitted, or stored only in accord with that
 written license.
  
 The following legend is applicable only to US Government
 contracts under FAR:
  
                    RESTRICTED RIGHTS LEGEND
  
 Use, reproduction and disclosure by the US Government is
 subject to restrictions as set forth in subparagraphs (a)
 and (c) of the Commercial Computer Software - Restricted
 Rights clause in FAR 52.227-19.
  
 Gaussian, Inc.
 340 Quinnipiac St., Bldg. 40, Wallingford CT 06492
  
  
 ---------------------------------------------------------------
 Warning -- This program may not be used in any manner that
 competes with the business of Gaussian, Inc. or will provide
 assistance to any competitor of Gaussian, Inc.  The licensee
 of this program is prohibited from giving any competitor of
 Gaussian, Inc. access to this program.  By using this program,
 the user acknowledges that Gaussian, Inc. is engaged in the
 business of creating and licensing software in the field of
 computational chemistry and represents and warrants to the
 licensee that it is not a competitor of Gaussian, Inc. and that
 it will not use this program in any manner prohibited above.
 ---------------------------------------------------------------
  

 Cite this work as:
 Gaussian 16, Revision C.01,
 M. J. Frisch, G. W. Trucks, H. B. Schlegel, G. E. Scuseria, 
 M. A. Robb, J. R. Cheeseman, G. Scalmani, V. Barone, 
 G. A. Petersson, H. Nakatsuji, X. Li, M. Caricato, A. V. Marenich, 
 J. Bloino, B. G. Janesko, R. Gomperts, B. Mennucci, H. P. Hratchian, 
 J. V. Ortiz, A. F. Izmaylov, J. L. Sonnenberg, D. Williams-Young, 
 F. Ding, F. Lipparini, F. Egidi, J. Goings, B. Peng, A. Petrone, 
 T. Henderson, D. Ranasinghe, V. G. Zakrzewski, J. Gao, N. Rega, 
 G. Zheng, W. Liang, M. Hada, M. Ehara, K. Toyota, R. Fukuda, 
 J. Hasegawa, M. Ishida, T. Nakajima, Y. Honda, O. Kitao, H. Nakai, 
 T. Vreven, K. Throssell, J. A. Montgomery, Jr., J. E. Peralta, 
 F. Ogliaro, M. J. Bearpark, J. J. Heyd, E. N. Brothers, K. N. Kudin, 
 V. N. Staroverov, T. A. Keith, R. Kobayashi, J. Normand, 
 K. Raghavachari, A. P. Rendell, J. C. Burant, S. S. Iyengar, 
 J. Tomasi, M. Cossi, J. M. Millam, M. Klene, C. Adamo, R. Cammi, 
 J. W. Ochterski, R. L. Martin, K. Morokuma, O. Farkas, 
 J. B. Foresman, and D. J. Fox, Gaussian, Inc., Wallingford CT, 2019.
 
 ******************************************
 Gaussian 16:  AM64L-G16RevC.01  3-Jul-2019
                26-Jan-2021 
 ******************************************
 %chk=gtt_Best_geom_HF_jun-cc-pV5Z.chk
 %nprocshared=16
 Will use up to   16 processors via shared memory.
 %mem=100GB
 -----------------
 #P HF jun-cc-pV5Z
 -----------------
 1/38=1,172=1/1;
 2/12=2,17=6,18=5,40=1/2;
 3/5=16,6=3,7=60,11=9,25=1,30=1/1,2,3;
 4//1;
 5/5=2,38=5/2;
 6/7=2,8=2,9=2,10=2,28=1/1;
 99/5=1,9=1/99;
 Leave Link    1 at Tue Jan 26 21:13:49 2021, MaxMem= 13421772800 cpu:               0.5 elap:               0.0
 (Enter /data2/software/Gaussian/g16_c01-gpu/g16/l101.exe)
 --------------------------
 start best geom PCCP paper
 --------------------------
 Symbolic Z-matrix:
 Charge =  0 Multiplicity = 1
 C
 O                    1    B1
 O                    1    B2       2    A1
 H                    2    B3       1    A2       3    D1       0
 C                    1    B4       3    A3       2    D2       0
 N                    5    B5       1    A4       3    D3       0
 H                    5    B6       1    A5       3    D4       0
 H                    5    B7       1    A6       3    D5       0
 H                    6    B8       5    A7       1    D6       0
 H                    6    B9       5    A8       1    D7       0
       Variables:
  B1                    1.34608                  
  B2                    1.20274                  
  A1                  123.21263                  
  B3                    0.96513                  
  A2                  106.9601                   
  D1                    1.12063                  
  B4                    1.50353                  
  A3                  125.17128                  
  D2                  178.03326                  
  B5                    1.44879                  
  A4                  110.05161                  
  D3                   18.04528                  
  B6                    1.09682                  
  A5                  105.6396                   
  D4                 -106.18775                  
  B7                    1.08963                  
  A6                  108.30581                  
  D5                  139.44601                  
  B8                    1.00859                  
  A7                  111.64684                  
  D6                 -155.36007                  
  B9                    1.01187                  
  A8                  110.28053                  
  D7                  -34.31555                  
 
 ITRead=  0  0  0  0  0  0  0  0  0  0
 MicOpt= -1 -1 -1 -1 -1 -1 -1 -1 -1 -1
 NAtoms=     10 NQM=       10 NQMF=       0 NMMI=      0 NMMIF=      0
                NMic=       0 NMicF=      0.
                    Isotopes and Nuclear Properties:
 (Nuclear quadrupole moments (NQMom) in fm**2, nuclear magnetic moments (NMagM)
  in nuclear magnetons)

  Atom         1           2           3           4           5           6           7           8           9          10
 IAtWgt=          12          16          16           1          12          14           1           1           1           1
 AtmWgt=  12.0000000  15.9949146  15.9949146   1.0078250  12.0000000  14.0030740   1.0078250   1.0078250   1.0078250   1.0078250
 NucSpn=           0           0           0           1           0           2           1           1           1           1
 AtZEff=  -0.0000000  -0.0000000  -0.0000000  -0.0000000  -0.0000000  -0.0000000  -0.0000000  -0.0000000  -0.0000000  -0.0000000
 NQMom=    0.0000000   0.0000000   0.0000000   0.0000000   0.0000000   2.0440000   0.0000000   0.0000000   0.0000000   0.0000000
 NMagM=    0.0000000   0.0000000   0.0000000   2.7928460   0.0000000   0.4037610   2.7928460   2.7928460   2.7928460   2.7928460
 AtZNuc=   6.0000000   8.0000000   8.0000000   1.0000000   6.0000000   7.0000000   1.0000000   1.0000000   1.0000000   1.0000000
 Leave Link  101 at Tue Jan 26 21:13:49 2021, MaxMem= 13421772800 cpu:               1.6 elap:               0.1
 (Enter /data2/software/Gaussian/g16_c01-gpu/g16/l202.exe)
                          Input orientation:                          
 ---------------------------------------------------------------------
 Center     Atomic      Atomic             Coordinates (Angstroms)
 Number     Number       Type             X           Y           Z
 ---------------------------------------------------------------------
      1          6           0        0.000000    0.000000    0.000000
      2          8           0        0.000000    0.000000    1.346080
      3          8           0        1.006265    0.000000   -0.658798
      4          1           0        0.922978    0.018055    1.627614
      5          6           0       -1.397395    0.042180   -0.553273
      6          7           0       -1.390055   -0.339641   -1.950825
      7          1           0       -1.761669    1.058393   -0.359291
      8          1           0       -2.017816   -0.635948    0.031974
      9          1           0       -2.181188    0.043508   -2.445353
     10          1           0       -0.540559   -0.019158   -2.397512
 ---------------------------------------------------------------------
                    Distance matrix (angstroms):
                    1          2          3          4          5
     1  C    0.000000
     2  O    1.346080   0.000000
     3  O    1.202740   2.243235   0.000000
     4  H    1.871187   0.965130   2.288000   0.000000
     5  C    1.503530   2.358396   2.406344   3.184491   0.000000
     6  N    2.419365   3.594049   2.743544   4.275897   1.448790
     7  H    2.086328   2.670574   2.978483   3.498203   1.096820
     8  H    2.115900   2.490560   3.166490   3.409114   1.089630
     9  H    3.277076   4.374293   3.654248   5.121089   2.047999
    10  H    2.457770   3.782466   2.327263   4.283102   2.034489
                    6          7          8          9         10
     6  N    0.000000
     7  H    2.150715   0.000000
     8  H    2.100803   1.757695   0.000000
     9  H    1.008590   2.357465   2.574004   0.000000
    10  H    1.011870   2.608940   2.909487   1.642523   0.000000
 Stoichiometry    C2H5NO2
 Framework group  C1[X(C2H5NO2)]
 Deg. of freedom    24
 Full point group                 C1      NOp   1
 Largest Abelian subgroup         C1      NOp   1
 Largest concise Abelian subgroup C1      NOp   1
                         Standard orientation:                         
 ---------------------------------------------------------------------
 Center     Atomic      Atomic             Coordinates (Angstroms)
 Number     Number       Type             X           Y           Z
 ---------------------------------------------------------------------
      1          6           0        0.533710    0.102893    0.014867
      2          8           0        1.632185   -0.670799   -0.066880
      3          8           0        0.575034    1.304539    0.045254
      4          1           0        2.393950   -0.078239   -0.074783
      5          6           0       -0.719436   -0.723120    0.103930
      6          7           0       -1.876755    0.096522   -0.192365
      7          1           0       -0.714656   -1.160119    1.109923
      8          1           0       -0.636201   -1.548521   -0.602525
      9          1           0       -2.714348   -0.276671    0.227657
     10          1           0       -1.734852    1.039339    0.146516
 ---------------------------------------------------------------------
 Rotational constants (GHZ):          10.4739593           4.0016078           2.9777418
 Leave Link  202 at Tue Jan 26 21:13:49 2021, MaxMem= 13421772800 cpu:               0.2 elap:               0.0
 (Enter /data2/software/Gaussian/g16_c01-gpu/g16/l301.exe)
 Standard basis: Jun-CC-pV5Z (5D, 7F)
 Ernie: Thresh=  0.10000D-02 Tol=  0.10000D-05 Strict=F.
 Ernie:  20 primitive shells out of 325 were deleted.
 There are  1155 symmetry adapted cartesian basis functions of A   symmetry.
 There are   855 symmetry adapted basis functions of A   symmetry.
   855 basis functions,  1285 primitive gaussians,  1155 cartesian basis functions
    20 alpha electrons       20 beta electrons
       nuclear repulsion energy       180.5543247289 Hartrees.
 IExCor=    0 DFT=F Ex=HF Corr=None ExCW=0 ScaHFX=  1.000000
 ScaDFX=  1.000000  1.000000  1.000000  1.000000 ScalE2=  1.000000  1.000000
 IRadAn=      5 IRanWt=     -1 IRanGd=            0 ICorTp=0 IEmpDi=  4
 NAtoms=   10 NActive=   10 NUniq=   10 SFac= 1.00D+00 NAtFMM=   60 NAOKFM=F Big=F
 Integral buffers will be    131072 words long.
 Raffenetti 1 integral format.
 Two-electron integral symmetry is turned on.
 Leave Link  301 at Tue Jan 26 21:13:49 2021, MaxMem= 13421772800 cpu:               0.9 elap:               0.1
 (Enter /data2/software/Gaussian/g16_c01-gpu/g16/l302.exe)
 NPDir=0 NMtPBC=     1 NCelOv=     1 NCel=       1 NClECP=     1 NCelD=      1
         NCelK=      1 NCelE2=     1 NClLst=     1 CellRange=     0.0.
 One-electron integrals computed using PRISM.
 One-electron integral symmetry used in STVInt
 NBasis=   855 RedAO= T EigKep=  1.06D-06  NBF=   855
 NBsUse=   855 1.00D-06 EigRej= -1.00D+00 NBFU=   855
 Leave Link  302 at Tue Jan 26 21:13:52 2021, MaxMem= 13421772800 cpu:              41.0 elap:               2.6
 (Enter /data2/software/Gaussian/g16_c01-gpu/g16/l303.exe)
 DipDrv:  MaxL=1.
 Leave Link  303 at Tue Jan 26 21:13:52 2021, MaxMem= 13421772800 cpu:               2.4 elap:               0.2
 (Enter /data2/software/Gaussian/g16_c01-gpu/g16/l401.exe)
 ExpMin= 2.72D-02 ExpMax= 1.64D+05 ExpMxC= 5.16D+02 IAcc=3 IRadAn=         5 AccDes= 0.00D+00
 Harris functional with IExCor=  205 and IRadAn=       5 diagonalized for initial guess.
 HarFok:  IExCor=  205 AccDes= 0.00D+00 IRadAn=         5 IDoV= 1 UseB2=F ITyADJ=14
 ICtDFT=  3500011 ScaDFX=  1.000000  1.000000  1.000000  1.000000
 FoFCou: FMM=F IPFlag=           0 FMFlag=      100000 FMFlg1=           0
         NFxFlg=           0 DoJE=T BraDBF=F KetDBF=T FulRan=T
         wScrn=  0.000000 ICntrl=       500 IOpCl=  0 I1Cent=   200000004 NGrid=           0
         NMat0=    1 NMatS0=      1 NMatT0=    0 NMatD0=    1 NMtDS0=    0 NMtDT0=    0
 Petite list used in FoFCou.
 Harris En= -283.256816469520    
 JPrj=0 DoOrth=F DoCkMO=F.
 Leave Link  401 at Tue Jan 26 21:13:57 2021, MaxMem= 13421772800 cpu:              85.8 elap:               5.4
 (Enter /data2/software/Gaussian/g16_c01-gpu/g16/l502.exe)
 Integral symmetry usage will be decided dynamically.
 Closed shell SCF:
 Using DIIS extrapolation, IDIIS=  1040.
 NGot= 13421772800 LenX= 13419077574 LenY= 13417742394
 Requested convergence on RMS density matrix=1.00D-08 within 128 cycles.
 Requested convergence on MAX density matrix=1.00D-06.
 Requested convergence on             energy=1.00D-06.
 No special actions if energy rises.
 Fock matrices will be formed incrementally for  20 cycles.

 Cycle   1  Pass 1  IDiag  1:
 FoFJK:  IHMeth= 1 ICntrl=       0 DoSepK=F KAlg= 0 I1Cent=           0 FoldK=F
 IRaf= 960000000 NMat=       1 IRICut=       1 DoRegI=T DoRafI=F ISym2E= 0 IDoP0=0 IntGTp=1.
 FoFCou: FMM=F IPFlag=           0 FMFlag=      100000 FMFlg1=           0
         NFxFlg=           0 DoJE=F BraDBF=F KetDBF=F FulRan=T
         wScrn=  0.000000 ICntrl=         0 IOpCl=  0 I1Cent=           0 NGrid=           0
         NMat0=    1 NMatS0=      1 NMatT0=    0 NMatD0=    1 NMtDS0=    0 NMtDT0=    0
 Symmetry not used in FoFCou.
 E= -282.727906637466    
 DIIS: error= 2.11D-02 at cycle   1 NSaved=   1.
 NSaved= 1 IEnMin= 1 EnMin= -282.727906637466     IErMin= 1 ErrMin= 2.11D-02
 ErrMax= 2.11D-02  0.00D+00 EMaxC= 1.00D-01 BMatC= 6.64D-01 BMatP= 6.64D-01
 IDIUse=3 WtCom= 7.89D-01 WtEn= 2.11D-01
 Coeff-Com:  0.100D+01
 Coeff-En:   0.100D+01
 Coeff:      0.100D+01
 Gap=     0.501 Goal=   None    Shift=    0.000
 GapD=    0.501 DampG=2.000 DampE=0.500 DampFc=1.0000 IDamp=-1.
 RMSDP=5.22D-04 MaxDP=8.40D-02              OVMax= 1.23D-01

 Cycle   2  Pass 1  IDiag  1:
 RMSU=  5.00D-04    CP:  9.31D-01
 E= -282.916597695328     Delta-E=       -0.188691057862 Rises=F Damp=F
 DIIS: error= 1.11D-02 at cycle   2 NSaved=   2.
 NSaved= 2 IEnMin= 2 EnMin= -282.916597695328     IErMin= 2 ErrMin= 1.11D-02
 ErrMax= 1.11D-02  0.00D+00 EMaxC= 1.00D-01 BMatC= 8.25D-02 BMatP= 6.64D-01
 IDIUse=3 WtCom= 8.89D-01 WtEn= 1.11D-01
 Coeff-Com:  0.185D+00 0.815D+00
 Coeff-En:   0.000D+00 0.100D+01
 Coeff:      0.165D+00 0.835D+00
 Gap=     0.474 Goal=   None    Shift=    0.000
 RMSDP=1.56D-04 MaxDP=2.02D-02 DE=-1.89D-01 OVMax= 6.04D-02

 Cycle   3  Pass 1  IDiag  1:
 RMSU=  1.39D-04    CP:  9.45D-01  8.72D-01
 E= -282.964682929064     Delta-E=       -0.048085233736 Rises=F Damp=F
 DIIS: error= 3.05D-03 at cycle   3 NSaved=   3.
 NSaved= 3 IEnMin= 3 EnMin= -282.964682929064     IErMin= 3 ErrMin= 3.05D-03
 ErrMax= 3.05D-03  0.00D+00 EMaxC= 1.00D-01 BMatC= 1.17D-02 BMatP= 8.25D-02
 IDIUse=3 WtCom= 9.70D-01 WtEn= 3.05D-02
 Coeff-Com: -0.253D-01 0.244D+00 0.781D+00
 Coeff-En:   0.000D+00 0.000D+00 0.100D+01
 Coeff:     -0.246D-01 0.237D+00 0.788D+00
 Gap=     0.441 Goal=   None    Shift=    0.000
 RMSDP=4.10D-05 MaxDP=5.36D-03 DE=-4.81D-02 OVMax= 2.59D-02

 Cycle   4  Pass 1  IDiag  1:
 RMSU=  2.79D-05    CP:  9.42D-01  9.16D-01  8.57D-01
 E= -282.972078081972     Delta-E=       -0.007395152908 Rises=F Damp=F
 DIIS: error= 1.15D-03 at cycle   4 NSaved=   4.
 NSaved= 4 IEnMin= 4 EnMin= -282.972078081972     IErMin= 4 ErrMin= 1.15D-03
 ErrMax= 1.15D-03  0.00D+00 EMaxC= 1.00D-01 BMatC= 3.76D-04 BMatP= 1.17D-02
 IDIUse=3 WtCom= 9.89D-01 WtEn= 1.15D-02
 Coeff-Com: -0.110D-01 0.584D-01 0.245D+00 0.708D+00
 Coeff-En:   0.000D+00 0.000D+00 0.000D+00 0.100D+01
 Coeff:     -0.109D-01 0.577D-01 0.242D+00 0.711D+00
 Gap=     0.437 Goal=   None    Shift=    0.000
 RMSDP=9.58D-06 MaxDP=1.02D-03 DE=-7.40D-03 OVMax= 4.91D-03

 Cycle   5  Pass 1  IDiag  1:
 RMSU=  8.91D-06    CP:  9.42D-01  9.17D-01  8.79D-01  9.46D-01
 E= -282.972397902812     Delta-E=       -0.000319820840 Rises=F Damp=F
 DIIS: error= 2.47D-04 at cycle   5 NSaved=   5.
 NSaved= 5 IEnMin= 5 EnMin= -282.972397902812     IErMin= 5 ErrMin= 2.47D-04
 ErrMax= 2.47D-04  0.00D+00 EMaxC= 1.00D-01 BMatC= 3.00D-05 BMatP= 3.76D-04
 IDIUse=3 WtCom= 9.98D-01 WtEn= 2.47D-03
 Coeff-Com:  0.214D-02-0.235D-01-0.788D-01 0.533D-01 0.105D+01
 Coeff-En:   0.000D+00 0.000D+00 0.000D+00 0.000D+00 0.100D+01
 Coeff:      0.213D-02-0.234D-01-0.786D-01 0.532D-01 0.105D+01
 Gap=     0.438 Goal=   None    Shift=    0.000
 RMSDP=5.78D-06 MaxDP=5.38D-04 DE=-3.20D-04 OVMax= 3.67D-03

 Cycle   6  Pass 1  IDiag  1:
 RMSU=  2.96D-06    CP:  9.42D-01  9.16D-01  8.92D-01  1.09D+00  1.24D+00
 E= -282.972451608858     Delta-E=       -0.000053706046 Rises=F Damp=F
 DIIS: error= 8.66D-05 at cycle   6 NSaved=   6.
 NSaved= 6 IEnMin= 6 EnMin= -282.972451608858     IErMin= 6 ErrMin= 8.66D-05
 ErrMax= 8.66D-05  0.00D+00 EMaxC= 1.00D-01 BMatC= 4.09D-06 BMatP= 3.00D-05
 IDIUse=1 WtCom= 1.00D+00 WtEn= 0.00D+00
 Coeff-Com:  0.146D-02-0.107D-01-0.388D-01-0.717D-01 0.180D+00 0.940D+00
 Coeff:      0.146D-02-0.107D-01-0.388D-01-0.717D-01 0.180D+00 0.940D+00
 Gap=     0.438 Goal=   None    Shift=    0.000
 RMSDP=2.16D-06 MaxDP=1.71D-04 DE=-5.37D-05 OVMax= 1.07D-03

 Cycle   7  Pass 1  IDiag  1:
 RMSU=  1.07D-06    CP:  9.43D-01  9.16D-01  8.96D-01  1.13D+00  1.37D+00
                    CP:  1.25D+00
 E= -282.972459299324     Delta-E=       -0.000007690466 Rises=F Damp=F
 DIIS: error= 3.50D-05 at cycle   7 NSaved=   7.
 NSaved= 7 IEnMin= 7 EnMin= -282.972459299324     IErMin= 7 ErrMin= 3.50D-05
 ErrMax= 3.50D-05  0.00D+00 EMaxC= 1.00D-01 BMatC= 5.10D-07 BMatP= 4.09D-06
 IDIUse=1 WtCom= 1.00D+00 WtEn= 0.00D+00
 Coeff-Com: -0.189D-03 0.241D-02 0.985D-02-0.173D-01-0.117D+00 0.200D-01
 Coeff-Com:  0.110D+01
 Coeff:     -0.189D-03 0.241D-02 0.985D-02-0.173D-01-0.117D+00 0.200D-01
 Coeff:      0.110D+01
 Gap=     0.438 Goal=   None    Shift=    0.000
 RMSDP=9.19D-07 MaxDP=8.29D-05 DE=-7.69D-06 OVMax= 7.12D-04

 Cycle   8  Pass 1  IDiag  1:
 RMSU=  3.23D-07    CP:  9.43D-01  9.16D-01  8.97D-01  1.14D+00  1.42D+00
                    CP:  1.46D+00  1.35D+00
 E= -282.972460652597     Delta-E=       -0.000001353273 Rises=F Damp=F
 DIIS: error= 1.15D-05 at cycle   8 NSaved=   8.
 NSaved= 8 IEnMin= 8 EnMin= -282.972460652597     IErMin= 8 ErrMin= 1.15D-05
 ErrMax= 1.15D-05  0.00D+00 EMaxC= 1.00D-01 BMatC= 7.10D-08 BMatP= 5.10D-07
 IDIUse=1 WtCom= 1.00D+00 WtEn= 0.00D+00
 Coeff-Com: -0.166D-03 0.110D-02 0.419D-02 0.664D-02-0.921D-03-0.119D+00
 Coeff-Com: -0.161D+00 0.127D+01
 Coeff:     -0.166D-03 0.110D-02 0.419D-02 0.664D-02-0.921D-03-0.119D+00
 Coeff:     -0.161D+00 0.127D+01
 Gap=     0.438 Goal=   None    Shift=    0.000
 RMSDP=3.66D-07 MaxDP=3.90D-05 DE=-1.35D-06 OVMax= 3.06D-04

 Cycle   9  Pass 1  IDiag  1:
 RMSU=  1.37D-07    CP:  9.43D-01  9.16D-01  8.97D-01  1.14D+00  1.43D+00
                    CP:  1.51D+00  1.55D+00  1.59D+00
 E= -282.972460859253     Delta-E=       -0.000000206656 Rises=F Damp=F
 DIIS: error= 3.14D-06 at cycle   9 NSaved=   9.
 NSaved= 9 IEnMin= 9 EnMin= -282.972460859253     IErMin= 9 ErrMin= 3.14D-06
 ErrMax= 3.14D-06  0.00D+00 EMaxC= 1.00D-01 BMatC= 8.85D-09 BMatP= 7.10D-08
 IDIUse=1 WtCom= 1.00D+00 WtEn= 0.00D+00
 Coeff-Com: -0.291D-05-0.121D-03-0.481D-03 0.223D-02 0.157D-01-0.201D-01
 Coeff-Com: -0.154D+00 0.179D+00 0.978D+00
 Coeff:     -0.291D-05-0.121D-03-0.481D-03 0.223D-02 0.157D-01-0.201D-01
 Coeff:     -0.154D+00 0.179D+00 0.978D+00
 Gap=     0.438 Goal=   None    Shift=    0.000
 RMSDP=1.07D-07 MaxDP=1.11D-05 DE=-2.07D-07 OVMax= 8.59D-05

 Cycle  10  Pass 1  IDiag  1:
 RMSU=  5.15D-08    CP:  9.43D-01  9.16D-01  8.97D-01  1.13D+00  1.43D+00
                    CP:  1.51D+00  1.57D+00  1.82D+00  1.30D+00
 E= -282.972460878507     Delta-E=       -0.000000019253 Rises=F Damp=F
 DIIS: error= 1.07D-06 at cycle  10 NSaved=  10.
 NSaved=10 IEnMin=10 EnMin= -282.972460878507     IErMin=10 ErrMin= 1.07D-06
 ErrMax= 1.07D-06  0.00D+00 EMaxC= 1.00D-01 BMatC= 1.08D-09 BMatP= 8.85D-09
 IDIUse=1 WtCom= 1.00D+00 WtEn= 0.00D+00
 Coeff-Com:  0.249D-04-0.191D-03-0.676D-03-0.118D-02 0.223D-02 0.159D-01
 Coeff-Com:  0.114D-01-0.180D+00 0.100D+00 0.105D+01
 Coeff:      0.249D-04-0.191D-03-0.676D-03-0.118D-02 0.223D-02 0.159D-01
 Coeff:      0.114D-01-0.180D+00 0.100D+00 0.105D+01
 Gap=     0.438 Goal=   None    Shift=    0.000
 RMSDP=4.51D-08 MaxDP=4.62D-06 DE=-1.93D-08 OVMax= 2.73D-05

 Cycle  11  Pass 1  IDiag  1:
 RMSU=  1.52D-08    CP:  9.43D-01  9.16D-01  8.97D-01  1.13D+00  1.43D+00
                    CP:  1.51D+00  1.57D+00  1.89D+00  1.52D+00  1.30D+00
 E= -282.972460880862     Delta-E=       -0.000000002356 Rises=F Damp=F
 DIIS: error= 3.66D-07 at cycle  11 NSaved=  11.
 NSaved=11 IEnMin=11 EnMin= -282.972460880862     IErMin=11 ErrMin= 3.66D-07
 ErrMax= 3.66D-07  0.00D+00 EMaxC= 1.00D-01 BMatC= 7.00D-11 BMatP= 1.08D-09
 IDIUse=1 WtCom= 1.00D+00 WtEn= 0.00D+00
 Coeff-Com: -0.541D-06 0.125D-04 0.759D-04-0.149D-03-0.101D-02 0.131D-03
 Coeff-Com:  0.105D-01 0.220D-02-0.939D-01-0.970D-01 0.118D+01
 Coeff:     -0.541D-06 0.125D-04 0.759D-04-0.149D-03-0.101D-02 0.131D-03
 Coeff:      0.105D-01 0.220D-02-0.939D-01-0.970D-01 0.118D+01
 Gap=     0.438 Goal=   None    Shift=    0.000
 RMSDP=1.35D-08 MaxDP=1.15D-06 DE=-2.36D-09 OVMax= 5.55D-06

 Cycle  12  Pass 1  IDiag  1:
 RMSU=  4.07D-09    CP:  9.43D-01  9.16D-01  8.97D-01  1.13D+00  1.43D+00
                    CP:  1.51D+00  1.57D+00  1.90D+00  1.56D+00  1.46D+00
                    CP:  1.36D+00
 E= -282.972460881019     Delta-E=       -0.000000000157 Rises=F Damp=F
 DIIS: error= 7.57D-08 at cycle  12 NSaved=  12.
 NSaved=12 IEnMin=12 EnMin= -282.972460881019     IErMin=12 ErrMin= 7.57D-08
 ErrMax= 7.57D-08  0.00D+00 EMaxC= 1.00D-01 BMatC= 3.39D-12 BMatP= 7.00D-11
 IDIUse=1 WtCom= 1.00D+00 WtEn= 0.00D+00
 Coeff-Com: -0.139D-05 0.103D-04 0.372D-04 0.703D-04-0.599D-04-0.101D-02
 Coeff-Com: -0.170D-02 0.131D-01-0.438D-02-0.616D-01-0.408D-01 0.110D+01
 Coeff:     -0.139D-05 0.103D-04 0.372D-04 0.703D-04-0.599D-04-0.101D-02
 Coeff:     -0.170D-02 0.131D-01-0.438D-02-0.616D-01-0.408D-01 0.110D+01
 Gap=     0.438 Goal=   None    Shift=    0.000
 RMSDP=2.67D-09 MaxDP=1.64D-07 DE=-1.57D-10 OVMax= 9.73D-07

 SCF Done:  E(RHF) =  -282.972460881     A.U. after   12 cycles
            NFock= 12  Conv=0.27D-08     -V/T= 2.0010
 KE= 2.826859416731D+02 PE=-1.027588932848D+03 EE= 2.813762055646D+02
 Leave Link  502 at Tue Jan 26 21:56:52 2021, MaxMem= 13421772800 cpu:           41205.1 elap:            2574.8
 (Enter /data2/software/Gaussian/g16_c01-gpu/g16/l601.exe)
 Copying SCF densities to generalized density rwf, IOpCl= 0 IROHF=0.

 **********************************************************************

            Population analysis using the SCF Density.

 **********************************************************************

 Orbital symmetries:
       Occupied  (A) (A) (A) (A) (A) (A) (A) (A) (A) (A) (A) (A)
                 (A) (A) (A) (A) (A) (A) (A) (A)
       Virtual   (A) (A) (A) (A) (A) (A) (A) (A) (A) (A) (A) (A)
                 (A) (A) (A) (A) (A) (A) (A) (A) (A) (A) (A) (A)
                 (A) (A) (A) (A) (A) (A) (A) (A) (A) (A) (A) (A)
                 (A) (A) (A) (A) (A) (A) (A) (A) (A) (A) (A) (A)
                 (A) (A) (A) (A) (A) (A) (A) (A) (A) (A) (A) (A)
                 (A) (A) (A) (A) (A) (A) (A) (A) (A) (A) (A) (A)
                 (A) (A) (A) (A) (A) (A) (A) (A) (A) (A) (A) (A)
                 (A) (A) (A) (A) (A) (A) (A) (A) (A) (A) (A) (A)
                 (A) (A) (A) (A) (A) (A) (A) (A) (A) (A) (A) (A)
                 (A) (A) (A) (A) (A) (A) (A) (A) (A) (A) (A) (A)
                 (A) (A) (A) (A) (A) (A) (A) (A) (A) (A) (A) (A)
                 (A) (A) (A) (A) (A) (A) (A) (A) (A) (A) (A) (A)
                 (A) (A) (A) (A) (A) (A) (A) (A) (A) (A) (A) (A)
                 (A) (A) (A) (A) (A) (A) (A) (A) (A) (A) (A) (A)
                 (A) (A) (A) (A) (A) (A) (A) (A) (A) (A) (A) (A)
                 (A) (A) (A) (A) (A) (A) (A) (A) (A) (A) (A) (A)
                 (A) (A) (A) (A) (A) (A) (A) (A) (A) (A) (A) (A)
                 (A) (A) (A) (A) (A) (A) (A) (A) (A) (A) (A) (A)
                 (A) (A) (A) (A) (A) (A) (A) (A) (A) (A) (A) (A)
                 (A) (A) (A) (A) (A) (A) (A) (A) (A) (A) (A) (A)
                 (A) (A) (A) (A) (A) (A) (A) (A) (A) (A) (A) (A)
                 (A) (A) (A) (A) (A) (A) (A) (A) (A) (A) (A) (A)
                 (A) (A) (A) (A) (A) (A) (A) (A) (A) (A) (A) (A)
                 (A) (A) (A) (A) (A) (A) (A) (A) (A) (A) (A) (A)
                 (A) (A) (A) (A) (A) (A) (A) (A) (A) (A) (A) (A)
                 (A) (A) (A) (A) (A) (A) (A) (A) (A) (A) (A) (A)
                 (A) (A) (A) (A) (A) (A) (A) (A) (A) (A) (A) (A)
                 (A) (A) (A) (A) (A) (A) (A) (A) (A) (A) (A) (A)
                 (A) (A) (A) (A) (A) (A) (A) (A) (A) (A) (A) (A)
                 (A) (A) (A) (A) (A) (A) (A) (A) (A) (A) (A) (A)
                 (A) (A) (A) (A) (A) (A) (A) (A) (A) (A) (A) (A)
                 (A) (A) (A) (A) (A) (A) (A) (A) (A) (A) (A) (A)
                 (A) (A) (A) (A) (A) (A) (A) (A) (A) (A) (A) (A)
                 (A) (A) (A) (A) (A) (A) (A) (A) (A) (A) (A) (A)
                 (A) (A) (A) (A) (A) (A) (A) (A) (A) (A) (A) (A)
                 (A) (A) (A) (A) (A) (A) (A) (A) (A) (A) (A) (A)
                 (A) (A) (A) (A) (A) (A) (A) (A) (A) (A) (A) (A)
                 (A) (A) (A) (A) (A) (A) (A) (A) (A) (A) (A) (A)
                 (A) (A) (A) (A) (A) (A) (A) (A) (A) (A) (A) (A)
                 (A) (A) (A) (A) (A) (A) (A) (A) (A) (A) (A) (A)
                 (A) (A) (A) (A) (A) (A) (A) (A) (A) (A) (A) (A)
                 (A) (A) (A) (A) (A) (A) (A) (A) (A) (A) (A) (A)
                 (A) (A) (A) (A) (A) (A) (A) (A) (A) (A) (A) (A)
                 (A) (A) (A) (A) (A) (A) (A) (A) (A) (A) (A) (A)
                 (A) (A) (A) (A) (A) (A) (A) (A) (A) (A) (A) (A)
                 (A) (A) (A) (A) (A) (A) (A) (A) (A) (A) (A) (A)
                 (A) (A) (A) (A) (A) (A) (A) (A) (A) (A) (A) (A)
                 (A) (A) (A) (A) (A) (A) (A) (A) (A) (A) (A) (A)
                 (A) (A) (A) (A) (A) (A) (A) (A) (A) (A) (A) (A)
                 (A) (A) (A) (A) (A) (A) (A) (A) (A) (A) (A) (A)
                 (A) (A) (A) (A) (A) (A) (A) (A) (A) (A) (A) (A)
                 (A) (A) (A) (A) (A) (A) (A) (A) (A) (A) (A) (A)
                 (A) (A) (A) (A) (A) (A) (A) (A) (A) (A) (A) (A)
                 (A) (A) (A) (A) (A) (A) (A) (A) (A) (A) (A) (A)
                 (A) (A) (A) (A) (A) (A) (A) (A) (A) (A) (A) (A)
                 (A) (A) (A) (A) (A) (A) (A) (A) (A) (A) (A) (A)
                 (A) (A) (A) (A) (A) (A) (A) (A) (A) (A) (A) (A)
                 (A) (A) (A) (A) (A) (A) (A) (A) (A) (A) (A) (A)
                 (A) (A) (A) (A) (A) (A) (A) (A) (A) (A) (A) (A)
                 (A) (A) (A) (A) (A) (A) (A) (A) (A) (A) (A) (A)
                 (A) (A) (A) (A) (A) (A) (A) (A) (A) (A) (A) (A)
                 (A) (A) (A) (A) (A) (A) (A) (A) (A) (A) (A) (A)
                 (A) (A) (A) (A) (A) (A) (A) (A) (A) (A) (A) (A)
                 (A) (A) (A) (A) (A) (A) (A) (A) (A) (A) (A) (A)
                 (A) (A) (A) (A) (A) (A) (A) (A) (A) (A) (A) (A)
                 (A) (A) (A) (A) (A) (A) (A) (A) (A) (A) (A) (A)
                 (A) (A) (A) (A) (A) (A) (A) (A) (A) (A) (A) (A)
                 (A) (A) (A) (A) (A) (A) (A) (A) (A) (A) (A) (A)
                 (A) (A) (A) (A) (A) (A) (A) (A) (A) (A) (A) (A)
                 (A) (A) (A) (A) (A) (A) (A)
 The electronic state is 1-A.
 Alpha  occ. eigenvalues --  -20.61692 -20.55338 -15.54708 -11.38975 -11.27659
 Alpha  occ. eigenvalues --   -1.47502  -1.37151  -1.19486  -0.98317  -0.81608
 Alpha  occ. eigenvalues --   -0.72376  -0.71207  -0.67256  -0.63425  -0.60437
 Alpha  occ. eigenvalues --   -0.57835  -0.56592  -0.49241  -0.46295  -0.40430
 Alpha virt. eigenvalues --    0.03402   0.03971   0.04914   0.05287   0.07172
 Alpha virt. eigenvalues --    0.07357   0.07450   0.09490   0.09864   0.11880
 Alpha virt. eigenvalues --    0.12609   0.13367   0.13719   0.14867   0.15298
 Alpha virt. eigenvalues --    0.15440   0.16105   0.17265   0.18231   0.19029
 Alpha virt. eigenvalues --    0.19766   0.20375   0.21706   0.22786   0.23331
 Alpha virt. eigenvalues --    0.24103   0.25745   0.26494   0.27772   0.28335
 Alpha virt. eigenvalues --    0.28831   0.30928   0.31585   0.31755   0.32472
 Alpha virt. eigenvalues --    0.32962   0.34406   0.35348   0.36123   0.36651
 Alpha virt. eigenvalues --    0.37336   0.38870   0.40377   0.40537   0.42278
 Alpha virt. eigenvalues --    0.43293   0.43855   0.44133   0.45328   0.46320
 Alpha virt. eigenvalues --    0.47390   0.48267   0.49503   0.50314   0.51670
 Alpha virt. eigenvalues --    0.52285   0.53640   0.53975   0.54848   0.55816
 Alpha virt. eigenvalues --    0.56269   0.56774   0.57991   0.59586   0.60236
 Alpha virt. eigenvalues --    0.60683   0.61202   0.62037   0.63451   0.64197
 Alpha virt. eigenvalues --    0.64938   0.65533   0.66111   0.67192   0.68166
 Alpha virt. eigenvalues --    0.68343   0.68732   0.70638   0.71059   0.72339
 Alpha virt. eigenvalues --    0.74287   0.75774   0.77706   0.79004   0.80110
 Alpha virt. eigenvalues --    0.81443   0.81805   0.84017   0.84469   0.86534
 Alpha virt. eigenvalues --    0.87170   0.87696   0.89593   0.90010   0.91448
 Alpha virt. eigenvalues --    0.92701   0.94062   0.96314   0.97443   0.98836
 Alpha virt. eigenvalues --    0.99560   1.00182   1.01096   1.02930   1.03783
 Alpha virt. eigenvalues --    1.06040   1.06959   1.07988   1.08750   1.09848
 Alpha virt. eigenvalues --    1.10725   1.11924   1.13356   1.13794   1.15493
 Alpha virt. eigenvalues --    1.15854   1.16882   1.17595   1.20245   1.20723
 Alpha virt. eigenvalues --    1.21570   1.22352   1.23124   1.24116   1.24693
 Alpha virt. eigenvalues --    1.25450   1.25896   1.27590   1.27725   1.28586
 Alpha virt. eigenvalues --    1.30160   1.30885   1.31238   1.32346   1.32535
 Alpha virt. eigenvalues --    1.35006   1.35248   1.35637   1.37867   1.39282
 Alpha virt. eigenvalues --    1.40230   1.40678   1.41999   1.43497   1.45545
 Alpha virt. eigenvalues --    1.46439   1.47137   1.48584   1.50213   1.50734
 Alpha virt. eigenvalues --    1.54013   1.55527   1.56737   1.58837   1.59374
 Alpha virt. eigenvalues --    1.61290   1.62689   1.63456   1.66703   1.69041
 Alpha virt. eigenvalues --    1.69718   1.72864   1.73243   1.75237   1.78451
 Alpha virt. eigenvalues --    1.79149   1.80056   1.81227   1.84495   1.86064
 Alpha virt. eigenvalues --    1.87611   1.89124   1.90372   1.93387   1.93901
 Alpha virt. eigenvalues --    1.95574   1.97541   1.99436   2.01353   2.01735
 Alpha virt. eigenvalues --    2.03877   2.04848   2.07070   2.08033   2.09184
 Alpha virt. eigenvalues --    2.10325   2.12338   2.13885   2.14112   2.15788
 Alpha virt. eigenvalues --    2.17146   2.18510   2.20169   2.22664   2.22802
 Alpha virt. eigenvalues --    2.24779   2.25742   2.26743   2.27919   2.30269
 Alpha virt. eigenvalues --    2.31014   2.32195   2.32951   2.34045   2.36250
 Alpha virt. eigenvalues --    2.37581   2.38653   2.40676   2.43448   2.43702
 Alpha virt. eigenvalues --    2.44526   2.45579   2.48250   2.48956   2.49192
 Alpha virt. eigenvalues --    2.51198   2.51577   2.53349   2.55666   2.56641
 Alpha virt. eigenvalues --    2.58057   2.58609   2.60927   2.63839   2.64340
 Alpha virt. eigenvalues --    2.65927   2.67528   2.68098   2.69979   2.71392
 Alpha virt. eigenvalues --    2.73799   2.75447   2.76212   2.76910   2.78143
 Alpha virt. eigenvalues --    2.78995   2.79457   2.82804   2.85905   2.86414
 Alpha virt. eigenvalues --    2.87756   2.89438   2.90884   2.92219   2.94307
 Alpha virt. eigenvalues --    2.95296   2.98061   3.01687   3.02077   3.03613
 Alpha virt. eigenvalues --    3.05143   3.05619   3.07977   3.08744   3.11451
 Alpha virt. eigenvalues --    3.13267   3.14260   3.14814   3.17565   3.19721
 Alpha virt. eigenvalues --    3.20121   3.20901   3.21966   3.25028   3.26177
 Alpha virt. eigenvalues --    3.26994   3.27544   3.28604   3.29604   3.30806
 Alpha virt. eigenvalues --    3.33300   3.35946   3.36494   3.38933   3.40084
 Alpha virt. eigenvalues --    3.40953   3.42787   3.46327   3.47274   3.49825
 Alpha virt. eigenvalues --    3.51924   3.53302   3.54899   3.56461   3.58794
 Alpha virt. eigenvalues --    3.59937   3.62330   3.65004   3.66189   3.67157
 Alpha virt. eigenvalues --    3.69197   3.69742   3.73047   3.74705   3.75392
 Alpha virt. eigenvalues --    3.77401   3.78623   3.79629   3.82841   3.85182
 Alpha virt. eigenvalues --    3.86134   3.88828   3.92050   3.93465   3.96545
 Alpha virt. eigenvalues --    3.97251   3.98127   4.00054   4.00246   4.01950
 Alpha virt. eigenvalues --    4.03969   4.05485   4.08181   4.10333   4.11787
 Alpha virt. eigenvalues --    4.13934   4.18060   4.20066   4.22202   4.24424
 Alpha virt. eigenvalues --    4.29535   4.31825   4.33661   4.34589   4.35859
 Alpha virt. eigenvalues --    4.37974   4.40570   4.43806   4.44605   4.46057
 Alpha virt. eigenvalues --    4.47300   4.48832   4.52780   4.54115   4.56275
 Alpha virt. eigenvalues --    4.56437   4.60045   4.61929   4.64618   4.66202
 Alpha virt. eigenvalues --    4.68894   4.70569   4.73531   4.75523   4.76247
 Alpha virt. eigenvalues --    4.79430   4.81476   4.82373   4.83098   4.86621
 Alpha virt. eigenvalues --    4.89265   4.90165   4.92656   4.93620   4.95127
 Alpha virt. eigenvalues --    4.96273   4.99676   5.03538   5.04662   5.05639
 Alpha virt. eigenvalues --    5.09043   5.10885   5.11871   5.14052   5.15329
 Alpha virt. eigenvalues --    5.16867   5.18179   5.21325   5.23068   5.25906
 Alpha virt. eigenvalues --    5.28608   5.29061   5.32384   5.32527   5.35642
 Alpha virt. eigenvalues --    5.37564   5.39304   5.40515   5.40989   5.43384
 Alpha virt. eigenvalues --    5.46804   5.47681   5.50057   5.51282   5.52666
 Alpha virt. eigenvalues --    5.53166   5.55839   5.58812   5.59424   5.61201
 Alpha virt. eigenvalues --    5.64168   5.65824   5.69460   5.70644   5.70891
 Alpha virt. eigenvalues --    5.76407   5.77496   5.79710   5.82077   5.83286
 Alpha virt. eigenvalues --    5.84339   5.86586   5.89532   5.91391   5.94722
 Alpha virt. eigenvalues --    5.97499   5.98653   6.00175   6.01543   6.03267
 Alpha virt. eigenvalues --    6.06098   6.07639   6.09960   6.11768   6.14894
 Alpha virt. eigenvalues --    6.15716   6.18716   6.23400   6.24844   6.28016
 Alpha virt. eigenvalues --    6.31891   6.34863   6.39156   6.41218   6.42637
 Alpha virt. eigenvalues --    6.44251   6.47895   6.50107   6.57191   6.59685
 Alpha virt. eigenvalues --    6.61809   6.62554   6.65801   6.68155   6.70226
 Alpha virt. eigenvalues --    6.74968   6.77968   6.80942   6.84327   6.85221
 Alpha virt. eigenvalues --    6.90792   6.92724   6.96416   7.00316   7.03847
 Alpha virt. eigenvalues --    7.07318   7.11372   7.19718   7.21487   7.23813
 Alpha virt. eigenvalues --    7.26935   7.29361   7.34098   7.35868   7.37004
 Alpha virt. eigenvalues --    7.39706   7.41293   7.44249   7.47316   7.47902
 Alpha virt. eigenvalues --    7.50000   7.50852   7.53491   7.56752   7.59486
 Alpha virt. eigenvalues --    7.64447   7.65045   7.67886   7.70888   7.72249
 Alpha virt. eigenvalues --    7.73851   7.75812   7.76551   7.78508   7.81034
 Alpha virt. eigenvalues --    7.84822   7.86394   7.89231   7.91381   7.93167
 Alpha virt. eigenvalues --    7.94433   7.96204   7.98408   8.03097   8.08030
 Alpha virt. eigenvalues --    8.11281   8.14431   8.16110   8.17272   8.20466
 Alpha virt. eigenvalues --    8.22834   8.24486   8.27259   8.28986   8.33313
 Alpha virt. eigenvalues --    8.40372   8.44959   8.46163   8.47823   8.56400
 Alpha virt. eigenvalues --    8.60687   8.63243   8.63680   8.69515   8.71504
 Alpha virt. eigenvalues --    8.76184   8.80446   8.84675   8.87533   8.91767
 Alpha virt. eigenvalues --    8.93552   8.94510   9.01242   9.07310   9.10346
 Alpha virt. eigenvalues --    9.17988   9.20807   9.30055   9.31612   9.36964
 Alpha virt. eigenvalues --    9.37806   9.43347   9.50077   9.53867   9.58039
 Alpha virt. eigenvalues --    9.64886   9.69534   9.72819   9.76579   9.83124
 Alpha virt. eigenvalues --    9.89955   9.94150   9.96606   9.98389  10.02830
 Alpha virt. eigenvalues --   10.08009  10.09512  10.15593  10.18805  10.22533
 Alpha virt. eigenvalues --   10.28160  10.33977  10.37901  10.43095  10.48650
 Alpha virt. eigenvalues --   10.58926  10.61784  10.62631  10.70313  10.73524
 Alpha virt. eigenvalues --   10.79082  10.81097  10.87527  10.89531  10.94396
 Alpha virt. eigenvalues --   10.97523  11.01470  11.08118  11.08872  11.11914
 Alpha virt. eigenvalues --   11.17533  11.21366  11.24842  11.30799  11.31296
 Alpha virt. eigenvalues --   11.40482  11.44068  11.48243  11.52803  11.56040
 Alpha virt. eigenvalues --   11.59573  11.65120  11.69194  11.73463  11.78288
 Alpha virt. eigenvalues --   11.81711  11.82706  11.86395  11.90682  11.92239
 Alpha virt. eigenvalues --   11.96846  12.05445  12.08775  12.14320  12.18591
 Alpha virt. eigenvalues --   12.23349  12.26676  12.28726  12.37102  12.40252
 Alpha virt. eigenvalues --   12.47972  12.51224  12.64879  12.67323  12.69592
 Alpha virt. eigenvalues --   12.74948  12.77241  12.78734  12.80667  12.81857
 Alpha virt. eigenvalues --   12.84708  12.87816  12.90152  12.93119  12.95499
 Alpha virt. eigenvalues --   12.97804  12.98138  13.01500  13.04429  13.08724
 Alpha virt. eigenvalues --   13.10840  13.14081  13.14756  13.17456  13.18572
 Alpha virt. eigenvalues --   13.21455  13.23347  13.25214  13.26306  13.27995
 Alpha virt. eigenvalues --   13.31579  13.32159  13.36252  13.37488  13.37808
 Alpha virt. eigenvalues --   13.40426  13.42795  13.44339  13.44904  13.48993
 Alpha virt. eigenvalues --   13.52981  13.57505  13.59867  13.65776  13.67006
 Alpha virt. eigenvalues --   13.69816  13.76036  13.80458  13.84434  13.90769
 Alpha virt. eigenvalues --   13.92545  13.93044  13.98507  13.99308  14.01257
 Alpha virt. eigenvalues --   14.02864  14.03621  14.06895  14.08783  14.10419
 Alpha virt. eigenvalues --   14.13203  14.14463  14.17518  14.20366  14.21442
 Alpha virt. eigenvalues --   14.23471  14.23977  14.26448  14.28088  14.29103
 Alpha virt. eigenvalues --   14.31495  14.31719  14.34946  14.36742  14.37765
 Alpha virt. eigenvalues --   14.40861  14.41988  14.44781  14.46939  14.49644
 Alpha virt. eigenvalues --   14.50314  14.52012  14.56735  14.58104  14.59183
 Alpha virt. eigenvalues --   14.64517  14.67142  14.67893  14.69150  14.72546
 Alpha virt. eigenvalues --   14.74642  14.81284  14.82615  14.86700  14.89119
 Alpha virt. eigenvalues --   14.90655  14.94461  14.95565  14.99814  15.01170
 Alpha virt. eigenvalues --   15.02984  15.08713  15.09283  15.13266  15.17334
 Alpha virt. eigenvalues --   15.18236  15.22950  15.25311  15.28207  15.32324
 Alpha virt. eigenvalues --   15.34935  15.44792  15.50574  15.53268  15.56347
 Alpha virt. eigenvalues --   15.59171  15.64066  15.65516  15.70208  15.77868
 Alpha virt. eigenvalues --   15.81032  15.88341  15.95491  16.00174  16.00576
 Alpha virt. eigenvalues --   16.03179  16.06353  16.14751  16.15660  16.22502
 Alpha virt. eigenvalues --   16.27094  16.30746  16.44630  16.51136  16.51666
 Alpha virt. eigenvalues --   16.55125  16.60794  16.67292  16.68716  16.71356
 Alpha virt. eigenvalues --   16.84638  16.87609  16.87929  16.88274  16.93590
 Alpha virt. eigenvalues --   17.00113  17.00681  17.08213  17.11452  17.19168
 Alpha virt. eigenvalues --   17.19612  17.20536  17.29886  17.30297  17.34878
 Alpha virt. eigenvalues --   17.37981  17.46206  17.62274  17.76345  17.86377
 Alpha virt. eigenvalues --   17.92497  17.99094  18.00648  18.03985  18.09603
 Alpha virt. eigenvalues --   18.12555  18.14048  18.19623  18.28413  18.31793
 Alpha virt. eigenvalues --   18.39939  18.49753  18.51270  18.56069  18.58036
 Alpha virt. eigenvalues --   18.61264  18.65135  18.77666  18.79787  18.98175
 Alpha virt. eigenvalues --   19.06197  19.13091  19.16308  19.24753  19.28168
 Alpha virt. eigenvalues --   19.35072  19.38092  19.40713  19.43183  19.45498
 Alpha virt. eigenvalues --   19.48333  19.51696  19.56912  19.59160  19.61880
 Alpha virt. eigenvalues --   19.64718  19.66419  19.68698  19.78891  19.82275
 Alpha virt. eigenvalues --   19.83238  19.89153  20.02220  20.11721  20.12631
 Alpha virt. eigenvalues --   20.18063  20.26925  20.41394  20.47781  20.68904
 Alpha virt. eigenvalues --   20.73627  20.77074  20.99607  21.03267  21.11056
 Alpha virt. eigenvalues --   21.15084  21.33136  21.33827  21.40774  21.62098
 Alpha virt. eigenvalues --   21.75684  21.87470  22.22409  22.50508  22.61954
 Alpha virt. eigenvalues --   22.62481  22.79140  22.85853  23.26374  23.28538
 Alpha virt. eigenvalues --   23.35975  23.67901  23.76501  23.78548  23.94797
 Alpha virt. eigenvalues --   24.25342  24.35533  24.53942  26.01769  26.35814
 Alpha virt. eigenvalues --   41.50676  43.18577  54.18046  65.27259  66.07157
          Condensed to atoms (all electrons):
               1          2          3          4          5          6
     1  C    4.139986   0.359250   0.548674  -0.014915   0.420425  -0.034880
     2  O    0.359250   8.060959  -0.079799   0.272708  -0.031941   0.005855
     3  O    0.548674  -0.079799   8.115011  -0.000081  -0.015408  -0.017963
     4  H   -0.014915   0.272708  -0.000081   0.318627   0.005976  -0.000350
     5  C    0.420425  -0.031941  -0.015408   0.005976   4.555191   0.331164
     6  N   -0.034880   0.005855  -0.017963  -0.000350   0.331164   6.864586
     7  H   -0.016663  -0.003679  -0.004525  -0.000294   0.390944  -0.025555
     8  H   -0.029679  -0.016436   0.003241   0.000204   0.433669  -0.055437
     9  H    0.005417  -0.000373   0.000928   0.000019  -0.014690   0.361056
    10  H   -0.006845  -0.000125   0.001504  -0.000025  -0.002317   0.349257
               7          8          9         10
     1  C   -0.016663  -0.029679   0.005417  -0.006845
     2  O   -0.003679  -0.016436  -0.000373  -0.000125
     3  O   -0.004525   0.003241   0.000928   0.001504
     4  H   -0.000294   0.000204   0.000019  -0.000025
     5  C    0.390944   0.433669  -0.014690  -0.002317
     6  N   -0.025555  -0.055437   0.361056   0.349257
     7  H    0.574475  -0.026477  -0.012968  -0.003086
     8  H   -0.026477   0.537896   0.001293   0.005226
     9  H   -0.012968   0.001293   0.363120  -0.011205
    10  H   -0.003086   0.005226  -0.011205   0.327953
 Mulliken charges:
               1
     1  C    0.629229
     2  O   -0.566420
     3  O   -0.551582
     4  H    0.418131
     5  C   -0.073014
     6  N   -0.777734
     7  H    0.127827
     8  H    0.146499
     9  H    0.307402
    10  H    0.339663
 Sum of Mulliken charges =  -0.00000
 Mulliken charges with hydrogens summed into heavy atoms:
               1
     1  C    0.629229
     2  O   -0.148290
     3  O   -0.551582
     5  C    0.201313
     6  N   -0.130669
 Electronic spatial extent (au):  <R**2>=            414.5710
 Charge=              0.0000 electrons
 Dipole moment (field-independent basis, Debye):
    X=              0.0729    Y=             -1.8016    Z=              1.3416  Tot=              2.2474
 Quadrupole moment (field-independent basis, Debye-Ang):
   XX=            -23.6659   YY=            -33.2646   ZZ=            -30.4968
   XY=              1.2276   XZ=             -3.3771   YZ=              0.1019
 Traceless Quadrupole moment (field-independent basis, Debye-Ang):
   XX=              5.4765   YY=             -4.1222   ZZ=             -1.3543
   XY=              1.2276   XZ=             -3.3771   YZ=              0.1019
 Octapole moment (field-independent basis, Debye-Ang**2):
  XXX=             14.6512  YYY=             -2.9216  ZZZ=              1.8825  XYY=             -6.3602
  XXY=              2.4253  XXZ=              6.9256  XZZ=              4.3650  YZZ=             -0.5913
  YYZ=             -0.0662  XYZ=             -0.7117
 Hexadecapole moment (field-independent basis, Debye-Ang**3):
 XXXX=           -243.5115 YYYY=           -142.3532 ZZZZ=            -37.7635 XXXY=              8.5600
 XXXZ=            -20.5230 YYYX=             -5.1480 YYYZ=              1.7195 ZZZX=             -4.4349
 ZZZY=              0.1340 XXYY=            -78.6563 XXZZ=            -67.6851 YYZZ=            -28.4667
 XXYZ=              0.2920 YYXZ=             -1.1434 ZZXY=              1.1672
 N-N= 1.805543247289D+02 E-N=-1.027588935108D+03  KE= 2.826859416731D+02
 No NMR shielding tensors so no spin-rotation constants.
 Leave Link  601 at Tue Jan 26 21:56:54 2021, MaxMem= 13421772800 cpu:              18.1 elap:               1.4
 (Enter /data2/software/Gaussian/g16_c01-gpu/g16/l9999.exe)
 Unable to Open any file for archive entry.
 1\1\GINC-CU10\SP\RHF\Jun-CC-pV5Z\C2H5N1O2\ROOT\26-Jan-2021\0\\#P HF ju
 n-cc-pV5Z\\start best geom PCCP paper\\0,1\C\O,1,1.34608\O,1,1.20274,2
 ,123.21263\H,2,0.96513,1,106.9601,3,1.12063,0\C,1,1.50353,3,125.17128,
 2,178.03326,0\N,5,1.44879,1,110.05161,3,18.04528,0\H,5,1.09682,1,105.6
 396,3,-106.18775,0\H,5,1.08963,1,108.30581,3,139.44601,0\H,6,1.00859,5
 ,111.64684,1,-155.36007,0\H,6,1.01187,5,110.28053,1,-34.31555,0\\Versi
 on=AM64L-G16RevC.01\State=1-A\HF=-282.9724609\RMSD=2.669e-09\Dipole=-0
 .5682394,0.5476364,0.3987603\Quadrupole=0.1830623,-1.2763102,1.0932479
 ,-1.1448101,3.7630817,-1.9326292\PG=C01 [X(C2H5N1O2)]\\@
 The archive entry for this job was punched.


 NEVER LOSE YOUR IGNORANCE, IT CAN'T BE REPLACED.
   -- ANDY CAPP
 Job cpu time:       0 days 11 hours 29 minutes 22.7 seconds.
 Elapsed time:       0 days  0 hours 43 minutes  5.2 seconds.
 File lengths (MBytes):  RWF=    379 Int=      0 D2E=      0 Chk=     43 Scr=      1
 Normal termination of Gaussian 16 at Tue Jan 26 21:56:54 2021.
