 Entering Gaussian System, Link 0=g16
 Input=tct_Best_geom_HF_jun-cc-pV5Z.gjf
 Output=tct_Best_geom_HF_jun-cc-pV5Z.log
 Initial command:
 /data2/software/Gaussian/g16_c01-gpu/g16/l1.exe "/home/shuchong/scratch/Gau-31693.inp" -scrdir="/home/shuchong/scratch/"
 Entering Link 1 = /data2/software/Gaussian/g16_c01-gpu/g16/l1.exe PID=     31694.
  
 Copyright (c) 1988-2019, Gaussian, Inc.  All Rights Reserved.
  
 This is part of the Gaussian(R) 16 program.  It is based on
 the Gaussian(R) 09 system (copyright 2009, Gaussian, Inc.),
 the Gaussian(R) 03 system (copyright 2003, Gaussian, Inc.),
 the Gaussian(R) 98 system (copyright 1998, Gaussian, Inc.),
 the Gaussian(R) 94 system (copyright 1995, Gaussian, Inc.),
 the Gaussian 92(TM) system (copyright 1992, Gaussian, Inc.),
 the Gaussian 90(TM) system (copyright 1990, Gaussian, Inc.),
 the Gaussian 88(TM) system (copyright 1988, Gaussian, Inc.),
 the Gaussian 86(TM) system (copyright 1986, Carnegie Mellon
 University), and the Gaussian 82(TM) system (copyright 1983,
 Carnegie Mellon University). Gaussian is a federally registered
 trademark of Gaussian, Inc.
  
 This software contains proprietary and confidential information,
 including trade secrets, belonging to Gaussian, Inc.
  
 This software is provided under written license and may be
 used, copied, transmitted, or stored only in accord with that
 written license.
  
 The following legend is applicable only to US Government
 contracts under FAR:
  
                    RESTRICTED RIGHTS LEGEND
  
 Use, reproduction and disclosure by the US Government is
 subject to restrictions as set forth in subparagraphs (a)
 and (c) of the Commercial Computer Software - Restricted
 Rights clause in FAR 52.227-19.
  
 Gaussian, Inc.
 340 Quinnipiac St., Bldg. 40, Wallingford CT 06492
  
  
 ---------------------------------------------------------------
 Warning -- This program may not be used in any manner that
 competes with the business of Gaussian, Inc. or will provide
 assistance to any competitor of Gaussian, Inc.  The licensee
 of this program is prohibited from giving any competitor of
 Gaussian, Inc. access to this program.  By using this program,
 the user acknowledges that Gaussian, Inc. is engaged in the
 business of creating and licensing software in the field of
 computational chemistry and represents and warrants to the
 licensee that it is not a competitor of Gaussian, Inc. and that
 it will not use this program in any manner prohibited above.
 ---------------------------------------------------------------
  

 Cite this work as:
 Gaussian 16, Revision C.01,
 M. J. Frisch, G. W. Trucks, H. B. Schlegel, G. E. Scuseria, 
 M. A. Robb, J. R. Cheeseman, G. Scalmani, V. Barone, 
 G. A. Petersson, H. Nakatsuji, X. Li, M. Caricato, A. V. Marenich, 
 J. Bloino, B. G. Janesko, R. Gomperts, B. Mennucci, H. P. Hratchian, 
 J. V. Ortiz, A. F. Izmaylov, J. L. Sonnenberg, D. Williams-Young, 
 F. Ding, F. Lipparini, F. Egidi, J. Goings, B. Peng, A. Petrone, 
 T. Henderson, D. Ranasinghe, V. G. Zakrzewski, J. Gao, N. Rega, 
 G. Zheng, W. Liang, M. Hada, M. Ehara, K. Toyota, R. Fukuda, 
 J. Hasegawa, M. Ishida, T. Nakajima, Y. Honda, O. Kitao, H. Nakai, 
 T. Vreven, K. Throssell, J. A. Montgomery, Jr., J. E. Peralta, 
 F. Ogliaro, M. J. Bearpark, J. J. Heyd, E. N. Brothers, K. N. Kudin, 
 V. N. Staroverov, T. A. Keith, R. Kobayashi, J. Normand, 
 K. Raghavachari, A. P. Rendell, J. C. Burant, S. S. Iyengar, 
 J. Tomasi, M. Cossi, J. M. Millam, M. Klene, C. Adamo, R. Cammi, 
 J. W. Ochterski, R. L. Martin, K. Morokuma, O. Farkas, 
 J. B. Foresman, and D. J. Fox, Gaussian, Inc., Wallingford CT, 2019.
 
 ******************************************
 Gaussian 16:  AM64L-G16RevC.01  3-Jul-2019
                26-Jan-2021 
 ******************************************
 %chk=tct_Best_geom_HF_jun-cc-pV5Z.chk
 %nprocshared=16
 Will use up to   16 processors via shared memory.
 %mem=100GB
 -----------------
 #P HF jun-cc-pV5Z
 -----------------
 1/38=1,172=1/1;
 2/12=2,17=6,18=5,40=1/2;
 3/5=16,6=3,7=60,11=9,25=1,30=1/1,2,3;
 4//1;
 5/5=2,38=5/2;
 6/7=2,8=2,9=2,10=2,28=1/1;
 99/5=1,9=1/99;
 Leave Link    1 at Tue Jan 26 20:11:50 2021, MaxMem= 13421772800 cpu:               0.4 elap:               0.0
 (Enter /data2/software/Gaussian/g16_c01-gpu/g16/l101.exe)
 --------------------------
 start best geom PCCP paper
 --------------------------
 Symbolic Z-matrix:
 Charge =  0 Multiplicity = 1
 C
 O                    1    B1
 O                    1    B2       2    A1
 H                    2    B3       1    A2       3    D1       0
 C                    1    B4       3    A3       2    D2       0
 N                    5    B5       1    A4       3    D3       0
 H                    5    B6       1    A5       3    D4       0
 H                    5    B6       1    A5       3    D4m      0
 H                    6    B8       5    A7       1    D6       0
 H                    6    B8       5    A7       1    D6m      0
       Variables:
  B1                    1.34824                  
  B2                    1.20339                  
  A1                  122.72896                  
  B3                    0.96562                  
  A2                  106.37597                  
  B4                    1.51736                  
  A3                  123.80161                  
  B5                    1.44458                  
  A4                  118.62999                  
  B6                    1.0899                   
  A5                  105.95621                  
  D4                   56.19793                  
  D4m                 -56.19793                  
  B8                    1.00975                  
  A7                  111.34671                  
  D6                   59.71795                  
  D6m                 -59.71795                  
  D1                    0.                       
  D2                  180.                       
  D3                  180.                       
 
 ITRead=  0  0  0  0  0  0  0  0  0  0
 MicOpt= -1 -1 -1 -1 -1 -1 -1 -1 -1 -1
 NAtoms=     10 NQM=       10 NQMF=       0 NMMI=      0 NMMIF=      0
                NMic=       0 NMicF=      0.
                    Isotopes and Nuclear Properties:
 (Nuclear quadrupole moments (NQMom) in fm**2, nuclear magnetic moments (NMagM)
  in nuclear magnetons)

  Atom         1           2           3           4           5           6           7           8           9          10
 IAtWgt=          12          16          16           1          12          14           1           1           1           1
 AtmWgt=  12.0000000  15.9949146  15.9949146   1.0078250  12.0000000  14.0030740   1.0078250   1.0078250   1.0078250   1.0078250
 NucSpn=           0           0           0           1           0           2           1           1           1           1
 AtZEff=  -0.0000000  -0.0000000  -0.0000000  -0.0000000  -0.0000000  -0.0000000  -0.0000000  -0.0000000  -0.0000000  -0.0000000
 NQMom=    0.0000000   0.0000000   0.0000000   0.0000000   0.0000000   2.0440000   0.0000000   0.0000000   0.0000000   0.0000000
 NMagM=    0.0000000   0.0000000   0.0000000   2.7928460   0.0000000   0.4037610   2.7928460   2.7928460   2.7928460   2.7928460
 AtZNuc=   6.0000000   8.0000000   8.0000000   1.0000000   6.0000000   7.0000000   1.0000000   1.0000000   1.0000000   1.0000000
 Leave Link  101 at Tue Jan 26 20:11:51 2021, MaxMem= 13421772800 cpu:               1.2 elap:               0.1
 (Enter /data2/software/Gaussian/g16_c01-gpu/g16/l202.exe)
                          Input orientation:                          
 ---------------------------------------------------------------------
 Center     Atomic      Atomic             Coordinates (Angstroms)
 Number     Number       Type             X           Y           Z
 ---------------------------------------------------------------------
      1          6           0        0.000000    0.000000    0.000000
      2          8           0        0.000000    0.000000    1.348240
      3          8           0        1.012337    0.000000   -0.650632
      4          1           0        0.926448    0.000000    1.620486
      5          6           0       -1.391833    0.000000   -0.604303
      6          7           0       -2.531719    0.000000    0.283092
      7          1           0       -1.434486   -0.870775   -1.258379
      8          1           0       -1.434486    0.870775   -1.258379
      9          1           0       -2.530429    0.812151    0.883095
     10          1           0       -2.530429   -0.812151    0.883095
 ---------------------------------------------------------------------
                    Distance matrix (angstroms):
                    1          2          3          4          5
     1  C    0.000000
     2  O    1.348240   0.000000
     3  O    1.203390   2.240606   0.000000
     4  H    1.866623   0.965621   2.272741   0.000000
     5  C    1.517360   2.397837   2.404616   3.213116   0.000000
     6  N    2.547497   2.746660   3.664993   3.707768   1.444580
     7  H    2.097502   3.100074   2.667311   3.823627   1.089900
     8  H    2.097502   3.100074   2.667311   3.823627   1.089900
     9  H    2.800449   2.697966   3.945009   3.626752   2.041653
    10  H    2.800449   2.697966   3.945009   3.626752   2.041653
                    6          7          8          9         10
     6  N    0.000000
     7  H    2.082859   0.000000
     8  H    2.082859   1.741549   0.000000
     9  H    1.009750   2.935854   2.406333   0.000000
    10  H    1.009750   2.406333   2.935854   1.624303   0.000000
 Stoichiometry    C2H5NO2
 Framework group  CS[SG(C2HNO2),X(H4)]
 Deg. of freedom    15
 Full point group                 CS      NOp   2
 Largest Abelian subgroup         CS      NOp   2
 Largest concise Abelian subgroup CS      NOp   2
                         Standard orientation:                         
 ---------------------------------------------------------------------
 Center     Atomic      Atomic             Coordinates (Angstroms)
 Number     Number       Type             X           Y           Z
 ---------------------------------------------------------------------
      1          6           0       -0.000000    0.635900    0.000000
      2          8           0       -1.323949    0.381124    0.000000
      3          8           0        0.447609    1.752947    0.000000
      4          1           0       -1.766360    1.239435    0.000000
      5          6           0        0.856429   -0.616662   -0.000000
      6          7           0        0.200424   -1.903701   -0.000000
      7          1           0        1.506780   -0.534947    0.870775
      8          1           0        1.506780   -0.534947   -0.870775
      9          1           0       -0.389012   -2.015816   -0.812151
     10          1           0       -0.389012   -2.015816    0.812151
 ---------------------------------------------------------------------
 Rotational constants (GHZ):          10.0492564           4.0169293           2.9660702
 Leave Link  202 at Tue Jan 26 20:11:51 2021, MaxMem= 13421772800 cpu:               0.1 elap:               0.0
 (Enter /data2/software/Gaussian/g16_c01-gpu/g16/l301.exe)
 Standard basis: Jun-CC-pV5Z (5D, 7F)
 Ernie: Thresh=  0.10000D-02 Tol=  0.10000D-05 Strict=F.
 Ernie:  20 primitive shells out of 325 were deleted.
 There are   696 symmetry adapted cartesian basis functions of A'  symmetry.
 There are   459 symmetry adapted cartesian basis functions of A"  symmetry.
 There are   500 symmetry adapted basis functions of A'  symmetry.
 There are   355 symmetry adapted basis functions of A"  symmetry.
   855 basis functions,  1285 primitive gaussians,  1155 cartesian basis functions
    20 alpha electrons       20 beta electrons
       nuclear repulsion energy       180.0072559301 Hartrees.
 IExCor=    0 DFT=F Ex=HF Corr=None ExCW=0 ScaHFX=  1.000000
 ScaDFX=  1.000000  1.000000  1.000000  1.000000 ScalE2=  1.000000  1.000000
 IRadAn=      5 IRanWt=     -1 IRanGd=            0 ICorTp=0 IEmpDi=  4
 NAtoms=   10 NActive=   10 NUniq=    8 SFac= 1.56D+00 NAtFMM=   60 NAOKFM=F Big=F
 Integral buffers will be    131072 words long.
 Raffenetti 1 integral format.
 Two-electron integral symmetry is turned on.
 Leave Link  301 at Tue Jan 26 20:11:51 2021, MaxMem= 13421772800 cpu:               0.6 elap:               0.1
 (Enter /data2/software/Gaussian/g16_c01-gpu/g16/l302.exe)
 NPDir=0 NMtPBC=     1 NCelOv=     1 NCel=       1 NClECP=     1 NCelD=      1
         NCelK=      1 NCelE2=     1 NClLst=     1 CellRange=     0.0.
 One-electron integrals computed using PRISM.
 One-electron integral symmetry used in STVInt
 NBasis=   855 RedAO= T EigKep=  3.55D-06  NBF=   500   355
 NBsUse=   854 1.00D-06 EigRej=  8.01D-07 NBFU=   499   355
 Leave Link  302 at Tue Jan 26 20:11:52 2021, MaxMem= 13421772800 cpu:              28.4 elap:               1.8
 (Enter /data2/software/Gaussian/g16_c01-gpu/g16/l303.exe)
 DipDrv:  MaxL=1.
 Leave Link  303 at Tue Jan 26 20:11:53 2021, MaxMem= 13421772800 cpu:               2.1 elap:               0.2
 (Enter /data2/software/Gaussian/g16_c01-gpu/g16/l401.exe)
 ExpMin= 2.72D-02 ExpMax= 1.64D+05 ExpMxC= 5.16D+02 IAcc=3 IRadAn=         5 AccDes= 0.00D+00
 Harris functional with IExCor=  205 and IRadAn=       5 diagonalized for initial guess.
 HarFok:  IExCor=  205 AccDes= 0.00D+00 IRadAn=         5 IDoV= 1 UseB2=F ITyADJ=14
 ICtDFT=  3500011 ScaDFX=  1.000000  1.000000  1.000000  1.000000
 FoFCou: FMM=F IPFlag=           0 FMFlag=      100000 FMFlg1=           0
         NFxFlg=           0 DoJE=T BraDBF=F KetDBF=T FulRan=T
         wScrn=  0.000000 ICntrl=       500 IOpCl=  0 I1Cent=   200000004 NGrid=           0
         NMat0=    1 NMatS0=      1 NMatT0=    0 NMatD0=    1 NMtDS0=    0 NMtDT0=    0
 Petite list used in FoFCou.
 Harris En= -283.257293369118    
 JPrj=0 DoOrth=F DoCkMO=F.
 Initial guess orbital symmetries:
       Occupied  (A') (A') (A') (A') (A') (A') (A') (A') (A') (A')
                 (A") (A') (A') (A') (A") (A') (A") (A") (A') (A')
       Virtual   (A") (A') (A') (A') (A") (A') (A') (A") (A') (A")
                 (A') (A') (A') (A') (A") (A') (A') (A") (A") (A')
                 (A') (A') (A') (A") (A") (A') (A') (A") (A') (A')
                 (A") (A') (A') (A') (A') (A") (A') (A") (A') (A')
                 (A") (A") (A') (A') (A") (A') (A') (A') (A') (A")
                 (A') (A') (A') (A") (A') (A") (A") (A') (A') (A")
                 (A') (A") (A') (A") (A') (A') (A') (A') (A") (A')
                 (A") (A') (A") (A') (A") (A') (A') (A") (A') (A')
                 (A') (A") (A") (A') (A') (A") (A") (A') (A') (A')
                 (A") (A') (A") (A') (A') (A') (A') (A") (A") (A')
                 (A") (A') (A") (A') (A') (A") (A') (A") (A") (A')
                 (A') (A") (A') (A') (A') (A") (A') (A") (A') (A")
                 (A') (A') (A') (A") (A') (A") (A') (A') (A") (A')
                 (A") (A') (A') (A") (A") (A') (A') (A") (A') (A")
                 (A") (A') (A') (A') (A") (A') (A') (A') (A") (A')
                 (A") (A') (A") (A') (A") (A') (A") (A') (A') (A")
                 (A') (A') (A") (A') (A") (A') (A') (A") (A") (A')
                 (A") (A') (A') (A") (A") (A') (A') (A') (A") (A")
                 (A') (A") (A') (A') (A") (A') (A') (A") (A") (A')
                 (A') (A") (A') (A") (A') (A') (A") (A") (A') (A')
                 (A") (A') (A') (A") (A') (A') (A") (A') (A") (A')
                 (A") (A') (A') (A') (A") (A') (A') (A") (A") (A')
                 (A') (A') (A') (A") (A") (A') (A") (A') (A') (A")
                 (A') (A') (A') (A") (A') (A") (A') (A") (A") (A')
                 (A") (A') (A") (A') (A') (A") (A') (A") (A') (A")
                 (A') (A') (A") (A') (A") (A") (A') (A") (A') (A')
                 (A') (A") (A') (A") (A') (A") (A') (A') (A") (A")
                 (A') (A') (A') (A") (A') (A") (A') (A') (A") (A")
                 (A') (A') (A") (A') (A") (A') (A') (A") (A') (A")
                 (A') (A') (A") (A') (A") (A') (A") (A') (A') (A')
                 (A") (A') (A") (A') (A") (A") (A') (A") (A') (A")
                 (A') (A') (A") (A') (A') (A") (A') (A") (A') (A')
                 (A") (A') (A") (A") (A') (A') (A") (A') (A') (A")
                 (A") (A') (A") (A') (A") (A') (A") (A') (A') (A")
                 (A') (A") (A') (A") (A') (A') (A') (A') (A") (A")
                 (A') (A") (A') (A") (A') (A') (A") (A') (A') (A')
                 (A") (A") (A") (A') (A') (A') (A") (A") (A') (A')
                 (A") (A') (A") (A') (A") (A") (A') (A") (A') (A")
                 (A') (A") (A') (A') (A") (A') (A") (A') (A") (A')
                 (A') (A') (A") (A') (A") (A') (A") (A') (A') (A")
                 (A') (A") (A') (A") (A') (A") (A') (A') (A') (A')
                 (A") (A") (A') (A") (A') (A") (A') (A") (A') (A')
                 (A') (A") (A") (A") (A') (A') (A") (A') (A") (A")
                 (A') (A') (A') (A') (A") (A') (A") (A') (A') (A")
                 (A') (A") (A') (A") (A') (A') (A') (A') (A") (A")
                 (A') (A') (A") (A') (A') (A") (A') (A") (A") (A')
                 (A') (A") (A') (A") (A') (A") (A') (A') (A") (A")
                 (A') (A') (A') (A") (A') (A") (A') (A") (A") (A')
                 (A') (A") (A') (A') (A") (A") (A") (A") (A") (A')
                 (A') (A") (A') (A') (A') (A") (A') (A') (A") (A')
                 (A") (A') (A') (A') (A") (A') (A") (A') (A') (A")
                 (A") (A') (A") (A') (A') (A') (A') (A") (A') (A")
                 (A") (A') (A') (A") (A") (A') (A") (A') (A') (A")
                 (A") (A") (A') (A') (A') (A") (A') (A') (A") (A')
                 (A') (A") (A') (A") (A') (A') (A") (A') (A') (A")
                 (A') (A') (A") (A") (A") (A') (A') (A') (A') (A")
                 (A') (A') (A") (A') (A") (A') (A") (A') (A") (A")
                 (A') (A") (A") (A') (A') (A") (A') (A") (A') (A')
                 (A') (A") (A') (A') (A") (A') (A") (A') (A") (A')
                 (A') (A') (A") (A') (A") (A') (A") (A') (A") (A")
                 (A') (A") (A") (A") (A') (A") (A') (A') (A') (A")
                 (A") (A') (A") (A') (A") (A') (A") (A') (A") (A")
                 (A') (A') (A") (A") (A") (A') (A') (A') (A") (A')
                 (A") (A') (A') (A") (A') (A") (A') (A') (A") (A')
                 (A') (A') (A") (A") (A") (A') (A') (A") (A') (A")
                 (A') (A") (A') (A") (A') (A') (A") (A') (A") (A')
                 (A') (A") (A') (A") (A') (A') (A") (A') (A") (A')
                 (A') (A") (A") (A') (A') (A") (A') (A') (A') (A")
                 (A") (A') (A") (A') (A") (A") (A') (A') (A") (A')
                 (A") (A') (A') (A") (A') (A") (A') (A') (A") (A')
                 (A') (A') (A") (A') (A') (A") (A') (A") (A") (A')
                 (A") (A") (A') (A') (A') (A") (A') (A") (A') (A")
                 (A") (A') (A") (A') (A') (A") (A') (A') (A") (A')
                 (A") (A') (A') (A") (A") (A') (A") (A') (A") (A')
                 (A") (A") (A') (A') (A") (A') (A") (A') (A') (A")
                 (A') (A') (A") (A") (A') (A') (A") (A') (A") (A')
                 (A') (A') (A") (A') (A") (A') (A") (A') (A') (A")
                 (A") (A') (A') (A") (A') (A") (A') (A') (A") (A')
                 (A") (A') (A") (A') (A") (A") (A') (A') (A") (A")
                 (A') (A') (A') (A") (A') (A") (A') (A") (A') (A")
                 (A") (A") (A') (A") (A") (A') (A') (A') (A') (A')
                 (A') (A') (A") (A') (A") (A') (A") (A") (A') (A')
                 (A") (A') (A") (A') (A") (A') (A') (A') (A') (A')
                 (A') (A') (A') (A')
 The electronic state of the initial guess is 1-A'.
 Leave Link  401 at Tue Jan 26 20:11:57 2021, MaxMem= 13421772800 cpu:              63.0 elap:               4.0
 (Enter /data2/software/Gaussian/g16_c01-gpu/g16/l502.exe)
 Integral symmetry usage will be decided dynamically.
 Closed shell SCF:
 Using DIIS extrapolation, IDIIS=  1040.
 NGot= 13421772800 LenX= 13419075355 LenY= 13417740175
 Requested convergence on RMS density matrix=1.00D-08 within 128 cycles.
 Requested convergence on MAX density matrix=1.00D-06.
 Requested convergence on             energy=1.00D-06.
 No special actions if energy rises.
 Fock matrices will be formed incrementally for  20 cycles.

 Cycle   1  Pass 1  IDiag  1:
 FoFJK:  IHMeth= 1 ICntrl=       0 DoSepK=F KAlg= 0 I1Cent=           0 FoldK=F
 IRaf= 960000000 NMat=       1 IRICut=       1 DoRegI=T DoRafI=F ISym2E= 1 IDoP0=0 IntGTp=1.
 FoFCou: FMM=F IPFlag=           0 FMFlag=      100000 FMFlg1=           0
         NFxFlg=           0 DoJE=F BraDBF=F KetDBF=F FulRan=T
         wScrn=  0.000000 ICntrl=         0 IOpCl=  0 I1Cent=           0 NGrid=           0
         NMat0=    1 NMatS0=      1 NMatT0=    0 NMatD0=    1 NMtDS0=    0 NMtDT0=    0
 Petite list used in FoFCou.
 E= -282.725518056892    
 DIIS: error= 3.02D-02 at cycle   1 NSaved=   1.
 NSaved= 1 IEnMin= 1 EnMin= -282.725518056892     IErMin= 1 ErrMin= 3.02D-02
 ErrMax= 3.02D-02  0.00D+00 EMaxC= 1.00D-01 BMatC= 6.67D-01 BMatP= 6.67D-01
 IDIUse=3 WtCom= 6.98D-01 WtEn= 3.02D-01
 Coeff-Com:  0.100D+01
 Coeff-En:   0.100D+01
 Coeff:      0.100D+01
 Gap=     0.390 Goal=   None    Shift=    0.000
 GapD=    0.390 DampG=1.000 DampE=0.500 DampFc=0.5000 IDamp=-1.
 Damping current iteration by 5.00D-01
 RMSDP=4.42D-04 MaxDP=4.77D-02              OVMax= 1.23D-01

 Cycle   2  Pass 1  IDiag  1:
 RMSU=  2.13D-04    CP:  9.73D-01
 E= -282.854005965490     Delta-E=       -0.128487908598 Rises=F Damp=T
 DIIS: error= 9.60D-03 at cycle   2 NSaved=   2.
 NSaved= 2 IEnMin= 2 EnMin= -282.854005965490     IErMin= 2 ErrMin= 9.60D-03
 ErrMax= 9.60D-03  0.00D+00 EMaxC= 1.00D-01 BMatC= 1.40D-01 BMatP= 6.67D-01
 IDIUse=3 WtCom= 9.04D-01 WtEn= 9.60D-02
 Coeff-Com: -0.612D+00 0.161D+01
 Coeff-En:   0.000D+00 0.100D+01
 Coeff:     -0.554D+00 0.155D+01
 Gap=     0.459 Goal=   None    Shift=    0.000
 RMSDP=1.87D-04 MaxDP=2.76D-02 DE=-1.28D-01 OVMax= 5.18D-02

 Cycle   3  Pass 1  IDiag  1:
 RMSU=  1.20D-04    CP:  9.59D-01  1.66D+00
 E= -282.966779415308     Delta-E=       -0.112773449818 Rises=F Damp=F
 DIIS: error= 3.38D-03 at cycle   3 NSaved=   3.
 NSaved= 3 IEnMin= 3 EnMin= -282.966779415308     IErMin= 3 ErrMin= 3.38D-03
 ErrMax= 3.38D-03  0.00D+00 EMaxC= 1.00D-01 BMatC= 7.16D-03 BMatP= 1.40D-01
 IDIUse=3 WtCom= 9.66D-01 WtEn= 3.38D-02
 Coeff-Com: -0.209D+00 0.374D+00 0.836D+00
 Coeff-En:   0.000D+00 0.000D+00 0.100D+01
 Coeff:     -0.202D+00 0.361D+00 0.841D+00
 Gap=     0.443 Goal=   None    Shift=    0.000
 RMSDP=3.35D-05 MaxDP=4.48D-03 DE=-1.13D-01 OVMax= 2.31D-02

 Cycle   4  Pass 1  IDiag  1:
 RMSU=  2.64D-05    CP:  9.57D-01  1.74D+00  9.16D-01
 E= -282.971291977641     Delta-E=       -0.004512562333 Rises=F Damp=F
 DIIS: error= 1.10D-03 at cycle   4 NSaved=   4.
 NSaved= 4 IEnMin= 4 EnMin= -282.971291977641     IErMin= 4 ErrMin= 1.10D-03
 ErrMax= 1.10D-03  0.00D+00 EMaxC= 1.00D-01 BMatC= 3.80D-04 BMatP= 7.16D-03
 IDIUse=3 WtCom= 9.89D-01 WtEn= 1.10D-02
 Coeff-Com: -0.486D-01 0.765D-01 0.264D+00 0.708D+00
 Coeff-En:   0.000D+00 0.000D+00 0.000D+00 0.100D+01
 Coeff:     -0.481D-01 0.756D-01 0.261D+00 0.712D+00
 Gap=     0.438 Goal=   None    Shift=    0.000
 RMSDP=9.29D-06 MaxDP=1.02D-03 DE=-4.51D-03 OVMax= 4.39D-03

 Cycle   5  Pass 1  IDiag  1:
 RMSU=  8.34D-06    CP:  9.57D-01  1.74D+00  9.46D-01  9.31D-01
 E= -282.971615546746     Delta-E=       -0.000323569105 Rises=F Damp=F
 DIIS: error= 3.05D-04 at cycle   5 NSaved=   5.
 NSaved= 5 IEnMin= 5 EnMin= -282.971615546746     IErMin= 5 ErrMin= 3.05D-04
 ErrMax= 3.05D-04  0.00D+00 EMaxC= 1.00D-01 BMatC= 2.78D-05 BMatP= 3.80D-04
 IDIUse=3 WtCom= 9.97D-01 WtEn= 3.05D-03
 Coeff-Com:  0.189D-01-0.343D-01-0.768D-01 0.483D-01 0.104D+01
 Coeff-En:   0.000D+00 0.000D+00 0.000D+00 0.000D+00 0.100D+01
 Coeff:      0.188D-01-0.342D-01-0.766D-01 0.481D-01 0.104D+01
 Gap=     0.439 Goal=   None    Shift=    0.000
 RMSDP=5.23D-06 MaxDP=5.27D-04 DE=-3.24D-04 OVMax= 3.57D-03

 Cycle   6  Pass 1  IDiag  1:
 RMSU=  2.55D-06    CP:  9.57D-01  1.74D+00  9.62D-01  1.07D+00  1.22D+00
 E= -282.971665869450     Delta-E=       -0.000050322704 Rises=F Damp=F
 DIIS: error= 9.34D-05 at cycle   6 NSaved=   6.
 NSaved= 6 IEnMin= 6 EnMin= -282.971665869450     IErMin= 6 ErrMin= 9.34D-05
 ErrMax= 9.34D-05  0.00D+00 EMaxC= 1.00D-01 BMatC= 4.37D-06 BMatP= 2.78D-05
 IDIUse=1 WtCom= 1.00D+00 WtEn= 0.00D+00
 Coeff-Com:  0.944D-02-0.160D-01-0.456D-01-0.780D-01 0.213D+00 0.917D+00
 Coeff:      0.944D-02-0.160D-01-0.456D-01-0.780D-01 0.213D+00 0.917D+00
 Gap=     0.440 Goal=   None    Shift=    0.000
 RMSDP=2.00D-06 MaxDP=1.54D-04 DE=-5.03D-05 OVMax= 1.05D-03

 Cycle   7  Pass 1  IDiag  1:
 RMSU=  9.63D-07    CP:  9.57D-01  1.74D+00  9.67D-01  1.11D+00  1.37D+00
                    CP:  1.13D+00
 E= -282.971673626095     Delta-E=       -0.000007756645 Rises=F Damp=F
 DIIS: error= 3.79D-05 at cycle   7 NSaved=   7.
 NSaved= 7 IEnMin= 7 EnMin= -282.971673626095     IErMin= 7 ErrMin= 3.79D-05
 ErrMax= 3.79D-05  0.00D+00 EMaxC= 1.00D-01 BMatC= 4.76D-07 BMatP= 4.37D-06
 IDIUse=1 WtCom= 1.00D+00 WtEn= 0.00D+00
 Coeff-Com: -0.170D-02 0.316D-02 0.836D-02-0.153D-01-0.106D+00 0.320D-01
 Coeff-Com:  0.108D+01
 Coeff:     -0.170D-02 0.316D-02 0.836D-02-0.153D-01-0.106D+00 0.320D-01
 Coeff:      0.108D+01
 Gap=     0.440 Goal=   None    Shift=    0.000
 RMSDP=7.98D-07 MaxDP=8.20D-05 DE=-7.76D-06 OVMax= 6.77D-04

 Cycle   8  Pass 1  IDiag  1:
 RMSU=  2.99D-07    CP:  9.57D-01  1.74D+00  9.68D-01  1.12D+00  1.41D+00
                    CP:  1.32D+00  1.36D+00
 E= -282.971674924950     Delta-E=       -0.000001298855 Rises=F Damp=F
 DIIS: error= 1.34D-05 at cycle   8 NSaved=   8.
 NSaved= 8 IEnMin= 8 EnMin= -282.971674924950     IErMin= 8 ErrMin= 1.34D-05
 ErrMax= 1.34D-05  0.00D+00 EMaxC= 1.00D-01 BMatC= 7.87D-08 BMatP= 4.76D-07
 IDIUse=1 WtCom= 1.00D+00 WtEn= 0.00D+00
 Coeff-Com: -0.117D-02 0.195D-02 0.630D-02 0.787D-02-0.160D-01-0.124D+00
 Coeff-Com: -0.121D+00 0.125D+01
 Coeff:     -0.117D-02 0.195D-02 0.630D-02 0.787D-02-0.160D-01-0.124D+00
 Coeff:     -0.121D+00 0.125D+01
 Gap=     0.440 Goal=   None    Shift=    0.000
 RMSDP=3.76D-07 MaxDP=4.03D-05 DE=-1.30D-06 OVMax= 3.13D-04

 Cycle   9  Pass 1  IDiag  1:
 RMSU=  1.31D-07    CP:  9.57D-01  1.74D+00  9.68D-01  1.12D+00  1.43D+00
                    CP:  1.39D+00  1.60D+00  1.50D+00
 E= -282.971675156438     Delta-E=       -0.000000231488 Rises=F Damp=F
 DIIS: error= 3.87D-06 at cycle   9 NSaved=   9.
 NSaved= 9 IEnMin= 9 EnMin= -282.971675156438     IErMin= 9 ErrMin= 3.87D-06
 ErrMax= 3.87D-06  0.00D+00 EMaxC= 1.00D-01 BMatC= 9.60D-09 BMatP= 7.87D-08
 IDIUse=1 WtCom= 1.00D+00 WtEn= 0.00D+00
 Coeff-Com:  0.508D-04-0.132D-03-0.407D-04 0.197D-02 0.127D-01-0.209D-01
 Coeff-Com: -0.146D+00 0.142D+00 0.101D+01
 Coeff:      0.508D-04-0.132D-03-0.407D-04 0.197D-02 0.127D-01-0.209D-01
 Coeff:     -0.146D+00 0.142D+00 0.101D+01
 Gap=     0.440 Goal=   None    Shift=    0.000
 RMSDP=1.08D-07 MaxDP=1.22D-05 DE=-2.31D-07 OVMax= 9.16D-05

 Cycle  10  Pass 1  IDiag  1:
 RMSU=  4.78D-08    CP:  9.57D-01  1.74D+00  9.68D-01  1.12D+00  1.43D+00
                    CP:  1.40D+00  1.65D+00  1.72D+00  1.27D+00
 E= -282.971675178862     Delta-E=       -0.000000022424 Rises=F Damp=F
 DIIS: error= 2.13D-06 at cycle  10 NSaved=  10.
 NSaved=10 IEnMin=10 EnMin= -282.971675178862     IErMin=10 ErrMin= 2.13D-06
 ErrMax= 2.13D-06  0.00D+00 EMaxC= 1.00D-01 BMatC= 1.10D-09 BMatP= 9.60D-09
 IDIUse=1 WtCom= 1.00D+00 WtEn= 0.00D+00
 Coeff-Com:  0.175D-03-0.298D-03-0.872D-03-0.132D-02 0.403D-02 0.151D-01
 Coeff-Com:  0.799D-02-0.168D+00 0.823D-01 0.106D+01
 Coeff:      0.175D-03-0.298D-03-0.872D-03-0.132D-02 0.403D-02 0.151D-01
 Coeff:      0.799D-02-0.168D+00 0.823D-01 0.106D+01
 Gap=     0.440 Goal=   None    Shift=    0.000
 RMSDP=3.75D-08 MaxDP=4.67D-06 DE=-2.24D-08 OVMax= 2.67D-05

 Cycle  11  Pass 1  IDiag  1:
 RMSU=  1.53D-08    CP:  9.57D-01  1.74D+00  9.68D-01  1.12D+00  1.43D+00
                    CP:  1.40D+00  1.66D+00  1.77D+00  1.45D+00  1.28D+00
 E= -282.971675181277     Delta-E=       -0.000000002415 Rises=F Damp=F
 DIIS: error= 3.37D-07 at cycle  11 NSaved=  11.
 NSaved=11 IEnMin=11 EnMin= -282.971675181277     IErMin=11 ErrMin= 3.37D-07
 ErrMax= 3.37D-07  0.00D+00 EMaxC= 1.00D-01 BMatC= 6.94D-11 BMatP= 1.10D-09
 IDIUse=1 WtCom= 1.00D+00 WtEn= 0.00D+00
 Coeff-Com: -0.839D-05 0.171D-04 0.547D-04-0.102D-03-0.929D-03 0.270D-03
 Coeff-Com:  0.101D-01 0.461D-02-0.977D-01-0.887D-01 0.117D+01
 Coeff:     -0.839D-05 0.171D-04 0.547D-04-0.102D-03-0.929D-03 0.270D-03
 Coeff:      0.101D-01 0.461D-02-0.977D-01-0.887D-01 0.117D+01
 Gap=     0.440 Goal=   None    Shift=    0.000
 RMSDP=1.18D-08 MaxDP=1.09D-06 DE=-2.42D-09 OVMax= 5.99D-06

 Cycle  12  Pass 1  IDiag  1:
 RMSU=  3.99D-09    CP:  9.57D-01  1.74D+00  9.68D-01  1.12D+00  1.43D+00
                    CP:  1.40D+00  1.66D+00  1.77D+00  1.48D+00  1.45D+00
                    CP:  1.42D+00
 E= -282.971675181439     Delta-E=       -0.000000000162 Rises=F Damp=F
 DIIS: error= 1.16D-07 at cycle  12 NSaved=  12.
 NSaved=12 IEnMin=12 EnMin= -282.971675181439     IErMin=12 ErrMin= 1.16D-07
 ErrMax= 1.16D-07  0.00D+00 EMaxC= 1.00D-01 BMatC= 4.23D-12 BMatP= 6.94D-11
 IDIUse=1 WtCom= 1.00D+00 WtEn= 0.00D+00
 Coeff-Com: -0.949D-05 0.158D-04 0.541D-04 0.734D-04-0.166D-03-0.104D-02
 Coeff-Com: -0.167D-02 0.129D-01-0.120D-02-0.689D-01-0.536D-01 0.111D+01
 Coeff:     -0.949D-05 0.158D-04 0.541D-04 0.734D-04-0.166D-03-0.104D-02
 Coeff:     -0.167D-02 0.129D-01-0.120D-02-0.689D-01-0.536D-01 0.111D+01
 Gap=     0.440 Goal=   None    Shift=    0.000
 RMSDP=3.10D-09 MaxDP=2.21D-07 DE=-1.62D-10 OVMax= 1.18D-06

 SCF Done:  E(RHF) =  -282.971675181     A.U. after   12 cycles
            NFock= 12  Conv=0.31D-08     -V/T= 2.0010
 KE= 2.826814282524D+02 PE=-1.026460592872D+03 EE= 2.808002335080D+02
 Leave Link  502 at Tue Jan 26 20:42:26 2021, MaxMem= 13421772800 cpu:           29276.7 elap:            1829.8
 (Enter /data2/software/Gaussian/g16_c01-gpu/g16/l601.exe)
 Copying SCF densities to generalized density rwf, IOpCl= 0 IROHF=0.

 **********************************************************************

            Population analysis using the SCF Density.

 **********************************************************************

 Orbital symmetries:
       Occupied  (A') (A') (A') (A') (A') (A') (A') (A') (A') (A')
                 (A') (A") (A') (A") (A') (A') (A") (A') (A") (A')
       Virtual   (A') (A') (A") (A') (A') (A") (A') (A") (A') (A')
                 (A') (A") (A') (A') (A") (A') (A') (A") (A') (A')
                 (A") (A") (A') (A') (A') (A") (A') (A") (A") (A')
                 (A') (A') (A') (A") (A') (A") (A') (A') (A") (A')
                 (A') (A") (A') (A') (A') (A') (A") (A') (A") (A')
                 (A') (A") (A') (A") (A') (A') (A") (A") (A') (A")
                 (A') (A') (A") (A') (A') (A') (A") (A') (A") (A')
                 (A') (A") (A') (A") (A') (A') (A') (A") (A') (A')
                 (A") (A") (A') (A') (A") (A') (A') (A') (A") (A")
                 (A') (A') (A") (A') (A') (A") (A') (A') (A") (A')
                 (A') (A") (A') (A") (A') (A') (A") (A") (A") (A')
                 (A") (A') (A') (A') (A") (A') (A') (A") (A') (A")
                 (A') (A") (A') (A') (A') (A") (A') (A") (A') (A')
                 (A") (A') (A") (A") (A') (A') (A') (A") (A') (A")
                 (A") (A') (A') (A') (A') (A") (A') (A') (A') (A")
                 (A") (A") (A') (A") (A') (A') (A') (A") (A') (A")
                 (A') (A') (A") (A') (A') (A") (A") (A') (A") (A')
                 (A") (A") (A') (A') (A") (A') (A') (A") (A') (A")
                 (A") (A') (A') (A') (A') (A") (A") (A') (A") (A')
                 (A') (A") (A') (A") (A") (A') (A') (A") (A') (A")
                 (A') (A') (A') (A') (A") (A') (A") (A") (A') (A')
                 (A") (A') (A') (A") (A') (A") (A') (A") (A') (A')
                 (A') (A') (A") (A") (A') (A") (A') (A') (A") (A')
                 (A') (A') (A") (A') (A') (A") (A") (A') (A") (A")
                 (A') (A') (A") (A') (A') (A") (A') (A") (A") (A')
                 (A') (A") (A') (A') (A") (A") (A') (A') (A") (A')
                 (A") (A') (A") (A') (A') (A") (A') (A') (A") (A')
                 (A") (A') (A') (A") (A") (A') (A') (A') (A") (A')
                 (A") (A") (A') (A') (A") (A') (A') (A") (A") (A')
                 (A') (A") (A') (A") (A') (A') (A") (A') (A') (A")
                 (A') (A") (A') (A') (A") (A") (A') (A') (A") (A")
                 (A') (A') (A") (A') (A') (A") (A') (A") (A') (A")
                 (A') (A") (A') (A") (A') (A") (A") (A') (A') (A')
                 (A") (A") (A') (A') (A") (A') (A") (A') (A') (A")
                 (A") (A') (A') (A") (A') (A') (A') (A") (A') (A")
                 (A') (A") (A") (A') (A') (A") (A') (A') (A') (A")
                 (A") (A') (A') (A") (A') (A") (A') (A") (A') (A")
                 (A') (A") (A') (A") (A') (A') (A") (A") (A') (A")
                 (A') (A') (A") (A") (A') (A') (A") (A") (A') (A')
                 (A") (A') (A') (A") (A') (A') (A") (A') (A") (A')
                 (A') (A") (A") (A') (A') (A") (A') (A") (A') (A')
                 (A") (A') (A") (A') (A") (A') (A') (A") (A') (A")
                 (A') (A') (A") (A") (A') (A') (A") (A") (A') (A')
                 (A") (A') (A') (A") (A') (A') (A") (A') (A') (A")
                 (A') (A") (A') (A") (A') (A') (A') (A') (A") (A")
                 (A') (A") (A') (A') (A") (A') (A') (A") (A") (A')
                 (A') (A') (A") (A") (A') (A') (A") (A') (A") (A')
                 (A') (A") (A") (A") (A') (A") (A') (A') (A") (A')
                 (A') (A") (A') (A') (A") (A") (A") (A') (A") (A")
                 (A') (A') (A") (A') (A') (A") (A') (A') (A") (A')
                 (A') (A") (A') (A") (A') (A") (A') (A") (A') (A')
                 (A") (A') (A") (A') (A') (A') (A') (A") (A") (A')
                 (A') (A") (A") (A") (A') (A") (A') (A') (A") (A')
                 (A") (A") (A') (A') (A') (A') (A") (A') (A") (A')
                 (A') (A") (A') (A") (A') (A') (A") (A') (A') (A")
                 (A') (A") (A') (A") (A") (A') (A') (A') (A') (A")
                 (A') (A') (A") (A') (A") (A') (A") (A") (A') (A")
                 (A') (A") (A") (A') (A') (A") (A') (A") (A') (A")
                 (A') (A') (A') (A") (A') (A") (A') (A') (A') (A")
                 (A') (A') (A") (A") (A') (A") (A") (A") (A") (A')
                 (A') (A') (A") (A') (A") (A') (A') (A") (A') (A")
                 (A') (A") (A") (A") (A') (A') (A") (A") (A') (A")
                 (A') (A") (A') (A') (A") (A") (A") (A') (A') (A')
                 (A") (A') (A") (A') (A") (A') (A') (A") (A') (A')
                 (A') (A") (A") (A') (A") (A") (A') (A") (A') (A")
                 (A') (A') (A') (A") (A') (A') (A") (A") (A') (A")
                 (A') (A') (A') (A') (A") (A") (A") (A') (A') (A")
                 (A') (A") (A') (A') (A") (A') (A") (A') (A") (A')
                 (A') (A') (A') (A") (A") (A') (A") (A") (A') (A")
                 (A') (A') (A") (A') (A") (A') (A') (A') (A") (A')
                 (A') (A") (A') (A') (A') (A") (A') (A") (A') (A")
                 (A") (A') (A') (A") (A') (A") (A') (A") (A') (A')
                 (A") (A") (A') (A") (A') (A") (A') (A") (A') (A')
                 (A") (A') (A') (A") (A') (A") (A") (A') (A") (A")
                 (A') (A') (A") (A") (A') (A') (A") (A') (A') (A")
                 (A') (A') (A") (A") (A') (A") (A') (A") (A') (A')
                 (A") (A') (A") (A') (A') (A") (A') (A') (A") (A')
                 (A") (A') (A') (A") (A') (A') (A") (A') (A") (A")
                 (A') (A') (A") (A') (A") (A') (A") (A") (A') (A")
                 (A') (A') (A') (A") (A') (A") (A') (A") (A") (A')
                 (A") (A") (A') (A") (A') (A") (A') (A') (A') (A')
                 (A') (A') (A") (A') (A") (A') (A") (A') (A') (A")
                 (A') (A") (A") (A") (A') (A') (A') (A') (A') (A')
                 (A') (A') (A') (A')
 The electronic state is 1-A'.
 Alpha  occ. eigenvalues --  -20.61894 -20.54875 -15.55472 -11.38658 -11.27762
 Alpha  occ. eigenvalues --   -1.47412  -1.36782  -1.20186  -0.97565  -0.83401
 Alpha  occ. eigenvalues --   -0.71148  -0.70148  -0.69551  -0.63265  -0.59940
 Alpha  occ. eigenvalues --   -0.58372  -0.54837  -0.48744  -0.48402  -0.40521
 Alpha virt. eigenvalues --    0.03438   0.04199   0.04977   0.05138   0.07278
 Alpha virt. eigenvalues --    0.07295   0.07552   0.09198   0.09231   0.11960
 Alpha virt. eigenvalues --    0.12603   0.13403   0.13551   0.14463   0.14692
 Alpha virt. eigenvalues --    0.15691   0.16562   0.17586   0.17694   0.19417
 Alpha virt. eigenvalues --    0.19431   0.20820   0.21384   0.23100   0.24023
 Alpha virt. eigenvalues --    0.24237   0.25724   0.26170   0.27367   0.27514
 Alpha virt. eigenvalues --    0.28939   0.29796   0.30949   0.32142   0.32662
 Alpha virt. eigenvalues --    0.32879   0.33911   0.34868   0.36983   0.37352
 Alpha virt. eigenvalues --    0.38006   0.38719   0.39712   0.39942   0.41255
 Alpha virt. eigenvalues --    0.43532   0.43865   0.44639   0.45679   0.46079
 Alpha virt. eigenvalues --    0.46535   0.47036   0.48680   0.50594   0.51177
 Alpha virt. eigenvalues --    0.52470   0.52560   0.54358   0.54546   0.55758
 Alpha virt. eigenvalues --    0.55961   0.56125   0.57718   0.58802   0.60507
 Alpha virt. eigenvalues --    0.61134   0.61299   0.62670   0.63100   0.63735
 Alpha virt. eigenvalues --    0.65561   0.66313   0.66408   0.68217   0.68421
 Alpha virt. eigenvalues --    0.69534   0.70505   0.70609   0.72905   0.73849
 Alpha virt. eigenvalues --    0.75590   0.76150   0.76236   0.77413   0.80272
 Alpha virt. eigenvalues --    0.81347   0.82158   0.84441   0.84556   0.86592
 Alpha virt. eigenvalues --    0.87105   0.87624   0.87799   0.90740   0.94072
 Alpha virt. eigenvalues --    0.94438   0.95685   0.97231   0.97526   0.98930
 Alpha virt. eigenvalues --    0.99977   1.01035   1.02449   1.03417   1.03833
 Alpha virt. eigenvalues --    1.04931   1.04988   1.05611   1.07903   1.09728
 Alpha virt. eigenvalues --    1.10825   1.12235   1.13078   1.13906   1.14354
 Alpha virt. eigenvalues --    1.14428   1.17417   1.18413   1.18803   1.19725
 Alpha virt. eigenvalues --    1.20726   1.21412   1.21959   1.22467   1.23188
 Alpha virt. eigenvalues --    1.23516   1.25210   1.27291   1.27879   1.28593
 Alpha virt. eigenvalues --    1.29130   1.30471   1.32387   1.32697   1.32955
 Alpha virt. eigenvalues --    1.33990   1.34450   1.36349   1.38743   1.38828
 Alpha virt. eigenvalues --    1.39735   1.40289   1.43265   1.45481   1.47307
 Alpha virt. eigenvalues --    1.47365   1.48709   1.50084   1.53210   1.54846
 Alpha virt. eigenvalues --    1.55909   1.56286   1.56308   1.59871   1.61208
 Alpha virt. eigenvalues --    1.64677   1.65880   1.65894   1.70268   1.71943
 Alpha virt. eigenvalues --    1.73922   1.75850   1.77223   1.79070   1.80488
 Alpha virt. eigenvalues --    1.80910   1.81274   1.81820   1.85184   1.85833
 Alpha virt. eigenvalues --    1.88047   1.90260   1.91003   1.92746   1.93669
 Alpha virt. eigenvalues --    1.97309   1.98906   1.99408   2.02035   2.02613
 Alpha virt. eigenvalues --    2.05133   2.05263   2.06060   2.08722   2.09686
 Alpha virt. eigenvalues --    2.10878   2.13585   2.13612   2.15732   2.16556
 Alpha virt. eigenvalues --    2.16738   2.19030   2.21358   2.22276   2.23606
 Alpha virt. eigenvalues --    2.23686   2.25566   2.26459   2.27820   2.32240
 Alpha virt. eigenvalues --    2.32774   2.33708   2.36497   2.36939   2.37089
 Alpha virt. eigenvalues --    2.38773   2.38883   2.40978   2.43070   2.43508
 Alpha virt. eigenvalues --    2.43711   2.46455   2.47988   2.49298   2.49577
 Alpha virt. eigenvalues --    2.53428   2.53881   2.57732   2.57912   2.59002
 Alpha virt. eigenvalues --    2.60113   2.62826   2.64818   2.65439   2.66584
 Alpha virt. eigenvalues --    2.67083   2.68022   2.69568   2.71158   2.72029
 Alpha virt. eigenvalues --    2.73289   2.73965   2.75168   2.75655   2.80230
 Alpha virt. eigenvalues --    2.80604   2.82573   2.83488   2.86371   2.88007
 Alpha virt. eigenvalues --    2.88157   2.89586   2.91817   2.92541   2.95698
 Alpha virt. eigenvalues --    2.97971   2.98070   3.00241   3.02205   3.04674
 Alpha virt. eigenvalues --    3.05918   3.07977   3.10755   3.12080   3.12967
 Alpha virt. eigenvalues --    3.13438   3.15901   3.16778   3.16965   3.19434
 Alpha virt. eigenvalues --    3.21488   3.22392   3.26205   3.26420   3.27309
 Alpha virt. eigenvalues --    3.28064   3.28958   3.29865   3.32139   3.34351
 Alpha virt. eigenvalues --    3.34606   3.37341   3.38511   3.39209   3.41342
 Alpha virt. eigenvalues --    3.42033   3.45757   3.47196   3.47878   3.52700
 Alpha virt. eigenvalues --    3.52856   3.55473   3.55975   3.56838   3.59437
 Alpha virt. eigenvalues --    3.61740   3.63541   3.64511   3.64811   3.66489
 Alpha virt. eigenvalues --    3.68615   3.71911   3.72341   3.74008   3.74260
 Alpha virt. eigenvalues --    3.78032   3.79062   3.81056   3.84523   3.84789
 Alpha virt. eigenvalues --    3.87308   3.88245   3.89420   3.90532   3.90893
 Alpha virt. eigenvalues --    3.95100   3.95394   3.99339   4.00772   4.02700
 Alpha virt. eigenvalues --    4.04904   4.07816   4.09349   4.11463   4.14407
 Alpha virt. eigenvalues --    4.15599   4.16978   4.21632   4.24349   4.28205
 Alpha virt. eigenvalues --    4.30744   4.32210   4.33483   4.35846   4.37521
 Alpha virt. eigenvalues --    4.37844   4.40259   4.41130   4.41709   4.44788
 Alpha virt. eigenvalues --    4.46630   4.49148   4.50911   4.55064   4.57184
 Alpha virt. eigenvalues --    4.59696   4.61165   4.63062   4.65398   4.66449
 Alpha virt. eigenvalues --    4.69441   4.72456   4.74699   4.76652   4.79462
 Alpha virt. eigenvalues --    4.81539   4.83483   4.85121   4.86639   4.87300
 Alpha virt. eigenvalues --    4.88688   4.92103   4.93299   4.93459   4.95020
 Alpha virt. eigenvalues --    4.97269   4.97455   5.05093   5.05390   5.09403
 Alpha virt. eigenvalues --    5.12451   5.12514   5.13408   5.13600   5.15964
 Alpha virt. eigenvalues --    5.20106   5.20759   5.21904   5.22415   5.23654
 Alpha virt. eigenvalues --    5.24960   5.29718   5.31440   5.32816   5.32956
 Alpha virt. eigenvalues --    5.37421   5.40173   5.43492   5.44120   5.47694
 Alpha virt. eigenvalues --    5.47734   5.48523   5.50957   5.51752   5.52320
 Alpha virt. eigenvalues --    5.56239   5.56892   5.59187   5.61400   5.63952
 Alpha virt. eigenvalues --    5.66995   5.67245   5.68600   5.72422   5.75496
 Alpha virt. eigenvalues --    5.76358   5.78871   5.81614   5.82339   5.83140
 Alpha virt. eigenvalues --    5.92657   5.93320   5.94566   5.94756   5.95515
 Alpha virt. eigenvalues --    5.98845   6.00574   6.03347   6.03431   6.05168
 Alpha virt. eigenvalues --    6.06226   6.08705   6.11301   6.14543   6.17419
 Alpha virt. eigenvalues --    6.21449   6.26058   6.26957   6.30245   6.30534
 Alpha virt. eigenvalues --    6.35091   6.35937   6.41825   6.46000   6.47066
 Alpha virt. eigenvalues --    6.50905   6.51762   6.54303   6.56949   6.62538
 Alpha virt. eigenvalues --    6.62987   6.68180   6.71519   6.72116   6.72435
 Alpha virt. eigenvalues --    6.78443   6.80574   6.82996   6.87436   6.88969
 Alpha virt. eigenvalues --    6.92743   6.96408   7.01159   7.01835   7.07167
 Alpha virt. eigenvalues --    7.09668   7.13129   7.20580   7.22086   7.28647
 Alpha virt. eigenvalues --    7.28886   7.31346   7.33504   7.36427   7.37933
 Alpha virt. eigenvalues --    7.38065   7.42753   7.46038   7.49653   7.49843
 Alpha virt. eigenvalues --    7.52743   7.53750   7.54311   7.56536   7.57827
 Alpha virt. eigenvalues --    7.67846   7.68201   7.70661   7.70830   7.74950
 Alpha virt. eigenvalues --    7.76011   7.77712   7.79052   7.79723   7.80750
 Alpha virt. eigenvalues --    7.84381   7.86089   7.88119   7.90921   7.91524
 Alpha virt. eigenvalues --    7.93225   8.01224   8.01326   8.06996   8.07229
 Alpha virt. eigenvalues --    8.08925   8.11546   8.15500   8.18429   8.23163
 Alpha virt. eigenvalues --    8.25299   8.28044   8.29672   8.34926   8.38760
 Alpha virt. eigenvalues --    8.41286   8.46607   8.48263   8.48772   8.59059
 Alpha virt. eigenvalues --    8.64056   8.65387   8.68416   8.73215   8.75587
 Alpha virt. eigenvalues --    8.81698   8.83106   8.85418   8.89861   8.91768
 Alpha virt. eigenvalues --    8.94291   8.97684   9.00234   9.10042   9.13440
 Alpha virt. eigenvalues --    9.21074   9.22349   9.31318   9.34372   9.38069
 Alpha virt. eigenvalues --    9.42778   9.45115   9.57278   9.60939   9.61519
 Alpha virt. eigenvalues --    9.71318   9.71758   9.76471   9.80094   9.85972
 Alpha virt. eigenvalues --    9.88478   9.93463  10.00132  10.07212  10.09454
 Alpha virt. eigenvalues --   10.13520  10.13911  10.15098  10.16442  10.28149
 Alpha virt. eigenvalues --   10.34774  10.39520  10.45296  10.46224  10.53611
 Alpha virt. eigenvalues --   10.62621  10.62945  10.69746  10.76202  10.77480
 Alpha virt. eigenvalues --   10.82933  10.83199  10.85567  10.89299  10.98369
 Alpha virt. eigenvalues --   11.00576  11.02239  11.10811  11.12894  11.15533
 Alpha virt. eigenvalues --   11.17821  11.26748  11.28723  11.39426  11.40813
 Alpha virt. eigenvalues --   11.43523  11.46620  11.49724  11.52709  11.56499
 Alpha virt. eigenvalues --   11.58784  11.63072  11.66040  11.69677  11.77398
 Alpha virt. eigenvalues --   11.78168  11.78965  11.92596  11.93597  11.98215
 Alpha virt. eigenvalues --   12.01844  12.05282  12.17498  12.18839  12.24289
 Alpha virt. eigenvalues --   12.24482  12.28405  12.35276  12.44047  12.45411
 Alpha virt. eigenvalues --   12.50282  12.55436  12.66383  12.68613  12.71912
 Alpha virt. eigenvalues --   12.77106  12.79347  12.80426  12.83309  12.83760
 Alpha virt. eigenvalues --   12.89059  12.92776  12.93438  12.93655  12.97337
 Alpha virt. eigenvalues --   12.99979  13.02128  13.02452  13.05494  13.10201
 Alpha virt. eigenvalues --   13.11153  13.14710  13.18119  13.21857  13.22888
 Alpha virt. eigenvalues --   13.24056  13.24124  13.25357  13.29192  13.33035
 Alpha virt. eigenvalues --   13.33435  13.36311  13.36354  13.37149  13.37713
 Alpha virt. eigenvalues --   13.40630  13.42086  13.42173  13.47927  13.53675
 Alpha virt. eigenvalues --   13.54802  13.62658  13.66083  13.68602  13.73464
 Alpha virt. eigenvalues --   13.73935  13.82440  13.83490  13.87160  13.94206
 Alpha virt. eigenvalues --   13.94465  13.97308  13.97698  13.98663  13.99899
 Alpha virt. eigenvalues --   14.05381  14.07067  14.07175  14.08983  14.11297
 Alpha virt. eigenvalues --   14.12948  14.14600  14.18201  14.18991  14.25762
 Alpha virt. eigenvalues --   14.27451  14.27571  14.29603  14.30068  14.32000
 Alpha virt. eigenvalues --   14.33892  14.35468  14.36803  14.39952  14.42130
 Alpha virt. eigenvalues --   14.43602  14.45062  14.45456  14.46596  14.49893
 Alpha virt. eigenvalues --   14.52030  14.54897  14.57977  14.61635  14.63499
 Alpha virt. eigenvalues --   14.66584  14.71384  14.71743  14.75005  14.75349
 Alpha virt. eigenvalues --   14.77635  14.82509  14.85827  14.86868  14.90537
 Alpha virt. eigenvalues --   14.92292  14.94240  14.99496  15.00595  15.08509
 Alpha virt. eigenvalues --   15.10019  15.12148  15.15309  15.17130  15.19364
 Alpha virt. eigenvalues --   15.21749  15.27673  15.32097  15.32381  15.36896
 Alpha virt. eigenvalues --   15.39846  15.48773  15.50583  15.56673  15.57303
 Alpha virt. eigenvalues --   15.60969  15.65272  15.68866  15.78194  15.84672
 Alpha virt. eigenvalues --   15.86564  15.93991  15.96646  15.96837  16.00313
 Alpha virt. eigenvalues --   16.09531  16.18953  16.22233  16.22675  16.29484
 Alpha virt. eigenvalues --   16.30064  16.42048  16.44643  16.49488  16.52722
 Alpha virt. eigenvalues --   16.52803  16.63594  16.66714  16.72534  16.85171
 Alpha virt. eigenvalues --   16.85639  16.90813  16.93085  16.95134  16.97418
 Alpha virt. eigenvalues --   16.97975  17.09222  17.11210  17.19921  17.20950
 Alpha virt. eigenvalues --   17.24894  17.30417  17.32332  17.37251  17.38231
 Alpha virt. eigenvalues --   17.45328  17.61184  17.75263  17.83096  17.84494
 Alpha virt. eigenvalues --   17.96351  18.01563  18.03797  18.07246  18.11963
 Alpha virt. eigenvalues --   18.15791  18.19268  18.29028  18.37236  18.46558
 Alpha virt. eigenvalues --   18.48848  18.49063  18.54406  18.54601  18.63399
 Alpha virt. eigenvalues --   18.70138  18.75804  18.81996  19.01913  19.10930
 Alpha virt. eigenvalues --   19.12734  19.17793  19.21696  19.26870  19.28711
 Alpha virt. eigenvalues --   19.40123  19.44160  19.44942  19.45739  19.48161
 Alpha virt. eigenvalues --   19.48756  19.57267  19.58396  19.58880  19.63399
 Alpha virt. eigenvalues --   19.64707  19.68587  19.78130  19.78146  19.82291
 Alpha virt. eigenvalues --   19.86341  20.00479  20.10645  20.12981  20.17298
 Alpha virt. eigenvalues --   20.24796  20.39885  20.46964  20.68723  20.69851
 Alpha virt. eigenvalues --   20.82281  20.97292  21.04512  21.09148  21.12694
 Alpha virt. eigenvalues --   21.33418  21.33722  21.36843  21.61782  21.69919
 Alpha virt. eigenvalues --   21.82227  22.19348  22.47910  22.60252  22.62090
 Alpha virt. eigenvalues --   22.74189  22.85392  23.29605  23.32406  23.34651
 Alpha virt. eigenvalues --   23.67032  23.75071  23.77212  23.98626  24.22223
 Alpha virt. eigenvalues --   24.32674  24.51845  26.02160  26.37694  41.48250
 Alpha virt. eigenvalues --   42.91436  54.23253  65.29668  66.10171
          Condensed to atoms (all electrons):
               1          2          3          4          5          6
     1  C    4.170865   0.354474   0.591664  -0.021437   0.460960  -0.047124
     2  O    0.354474   8.120220  -0.089087   0.264797  -0.042601  -0.032249
     3  O    0.591664  -0.089087   8.086208  -0.004558  -0.030147   0.003282
     4  H   -0.021437   0.264797  -0.004558   0.328484   0.002339   0.002400
     5  C    0.460960  -0.042601  -0.030147   0.002339   4.414765   0.355447
     6  N   -0.047124  -0.032249   0.003282   0.002400   0.355447   6.894131
     7  H   -0.031320   0.003218  -0.006387  -0.000168   0.409568  -0.043529
     8  H   -0.031320   0.003218  -0.006387  -0.000168   0.409568  -0.043529
     9  H   -0.004878   0.000659   0.000411   0.000106  -0.005550   0.336154
    10  H   -0.004878   0.000659   0.000411   0.000106  -0.005550   0.336154
               7          8          9         10
     1  C   -0.031320  -0.031320  -0.004878  -0.004878
     2  O    0.003218   0.003218   0.000659   0.000659
     3  O   -0.006387  -0.006387   0.000411   0.000411
     4  H   -0.000168  -0.000168   0.000106   0.000106
     5  C    0.409568   0.409568  -0.005550  -0.005550
     6  N   -0.043529  -0.043529   0.336154   0.336154
     7  H    0.572365  -0.024867   0.006440  -0.003714
     8  H   -0.024867   0.572365  -0.003714   0.006440
     9  H    0.006440  -0.003714   0.370966  -0.015981
    10  H   -0.003714   0.006440  -0.015981   0.370966
 Mulliken charges:
               1
     1  C    0.562994
     2  O   -0.583308
     3  O   -0.545411
     4  H    0.428100
     5  C    0.031201
     6  N   -0.761136
     7  H    0.118394
     8  H    0.118394
     9  H    0.315387
    10  H    0.315387
 Sum of Mulliken charges =  -0.00000
 Mulliken charges with hydrogens summed into heavy atoms:
               1
     1  C    0.562994
     2  O   -0.155208
     3  O   -0.545411
     5  C    0.267988
     6  N   -0.130363
 Electronic spatial extent (au):  <R**2>=            415.5948
 Charge=             -0.0000 electrons
 Dipole moment (field-independent basis, Debye):
    X=             -1.7887    Y=             -1.0086    Z=              0.0000  Tot=              2.0534
 Quadrupole moment (field-independent basis, Debye-Ang):
   XX=            -27.8356   YY=            -37.2417   ZZ=            -27.2169
   XY=             -2.1801   XZ=             -0.0000   YZ=             -0.0000
 Traceless Quadrupole moment (field-independent basis, Debye-Ang):
   XX=              2.9291   YY=             -6.4769   ZZ=              3.5478
   XY=             -2.1801   XZ=             -0.0000   YZ=             -0.0000
 Octapole moment (field-independent basis, Debye-Ang**2):
  XXX=             -8.6717  YYY=              4.9343  ZZZ=              0.0000  XYY=            -19.5324
  XXY=              6.8513  XXZ=             -0.0000  XZZ=             -0.8850  YZZ=             -2.2160
  YYZ=              0.0000  XYZ=              0.0000
 Hexadecapole moment (field-independent basis, Debye-Ang**3):
 XXXX=           -131.3756 YYYY=           -377.7178 ZZZZ=            -34.3879 XXXY=             -0.5420
 XXXZ=              0.0000 YYYX=             24.1607 YYYZ=             -0.0000 ZZZX=             -0.0000
 ZZZY=              0.0000 XXYY=            -72.2681 XXZZ=            -28.5428 YYZZ=            -53.6744
 XXYZ=              0.0000 YYXZ=             -0.0000 ZZXY=              5.8270
 N-N= 1.800072559301D+02 E-N=-1.026460595496D+03  KE= 2.826814282524D+02
 Symmetry A'   KE= 2.698409142686D+02
 Symmetry A"   KE= 1.284051398374D+01
 No NMR shielding tensors so no spin-rotation constants.
 Leave Link  601 at Tue Jan 26 20:42:29 2021, MaxMem= 13421772800 cpu:              42.0 elap:               2.9
 (Enter /data2/software/Gaussian/g16_c01-gpu/g16/l9999.exe)
 Unable to Open any file for archive entry.
 1\1\GINC-CU10\SP\RHF\Jun-CC-pV5Z\C2H5N1O2\ROOT\26-Jan-2021\0\\#P HF ju
 n-cc-pV5Z\\start best geom PCCP paper\\0,1\C\O,1,1.34824\O,1,1.20339,2
 ,122.72896\H,2,0.965621,1,106.37597,3,0.,0\C,1,1.51736,3,123.80161,2,1
 80.,0\N,5,1.44458,1,118.62999,3,180.,0\H,5,1.0899,1,105.95621,3,56.197
 93,0\H,5,1.0899,1,105.95621,3,-56.19793,0\H,6,1.00975,5,111.34671,1,59
 .71795,0\H,6,1.00975,5,111.34671,1,-59.71795,0\\Version=AM64L-G16RevC.
 01\State=1-A'\HF=-282.9716752\RMSD=3.096e-09\Dipole=-0.2566693,0.,0.76
 60174\Quadrupole=-3.9641603,2.6377213,1.3264391,0.,2.802806,0.\PG=CS [
 SG(C2H1N1O2),X(H4)]\\@
 The archive entry for this job was punched.


 ...THE PHYSICISTS HAVE MADE THEIR UNIVERSE, AND IF YOU DO NOT LIKE
 IT, YOU MUST MAKE YOUR OWN.
                               -- E. R. HARRISON IN "COSMOLOGY" (1980)
 Job cpu time:       0 days  8 hours 10 minutes 21.4 seconds.
 Elapsed time:       0 days  0 hours 30 minutes 39.4 seconds.
 File lengths (MBytes):  RWF=    384 Int=      0 D2E=      0 Chk=     43 Scr=      1
 Normal termination of Gaussian 16 at Tue Jan 26 20:42:30 2021.
