 Entering Gaussian System, Link 0=g16
 Input=VIII_gtc_Best_geom_HF_jun-cc-pV5Z.gjf
 Output=VIII_gtc_Best_geom_HF_jun-cc-pV5Z.log
 Initial command:
 /data2/software/Gaussian/g16_c01-gpu/g16/l1.exe "/home/shuchong/scratch/Gau-12808.inp" -scrdir="/home/shuchong/scratch/"
 Entering Link 1 = /data2/software/Gaussian/g16_c01-gpu/g16/l1.exe PID=     12809.
  
 Copyright (c) 1988-2019, Gaussian, Inc.  All Rights Reserved.
  
 This is part of the Gaussian(R) 16 program.  It is based on
 the Gaussian(R) 09 system (copyright 2009, Gaussian, Inc.),
 the Gaussian(R) 03 system (copyright 2003, Gaussian, Inc.),
 the Gaussian(R) 98 system (copyright 1998, Gaussian, Inc.),
 the Gaussian(R) 94 system (copyright 1995, Gaussian, Inc.),
 the Gaussian 92(TM) system (copyright 1992, Gaussian, Inc.),
 the Gaussian 90(TM) system (copyright 1990, Gaussian, Inc.),
 the Gaussian 88(TM) system (copyright 1988, Gaussian, Inc.),
 the Gaussian 86(TM) system (copyright 1986, Carnegie Mellon
 University), and the Gaussian 82(TM) system (copyright 1983,
 Carnegie Mellon University). Gaussian is a federally registered
 trademark of Gaussian, Inc.
  
 This software contains proprietary and confidential information,
 including trade secrets, belonging to Gaussian, Inc.
  
 This software is provided under written license and may be
 used, copied, transmitted, or stored only in accord with that
 written license.
  
 The following legend is applicable only to US Government
 contracts under FAR:
  
                    RESTRICTED RIGHTS LEGEND
  
 Use, reproduction and disclosure by the US Government is
 subject to restrictions as set forth in subparagraphs (a)
 and (c) of the Commercial Computer Software - Restricted
 Rights clause in FAR 52.227-19.
  
 Gaussian, Inc.
 340 Quinnipiac St., Bldg. 40, Wallingford CT 06492
  
  
 ---------------------------------------------------------------
 Warning -- This program may not be used in any manner that
 competes with the business of Gaussian, Inc. or will provide
 assistance to any competitor of Gaussian, Inc.  The licensee
 of this program is prohibited from giving any competitor of
 Gaussian, Inc. access to this program.  By using this program,
 the user acknowledges that Gaussian, Inc. is engaged in the
 business of creating and licensing software in the field of
 computational chemistry and represents and warrants to the
 licensee that it is not a competitor of Gaussian, Inc. and that
 it will not use this program in any manner prohibited above.
 ---------------------------------------------------------------
  

 Cite this work as:
 Gaussian 16, Revision C.01,
 M. J. Frisch, G. W. Trucks, H. B. Schlegel, G. E. Scuseria, 
 M. A. Robb, J. R. Cheeseman, G. Scalmani, V. Barone, 
 G. A. Petersson, H. Nakatsuji, X. Li, M. Caricato, A. V. Marenich, 
 J. Bloino, B. G. Janesko, R. Gomperts, B. Mennucci, H. P. Hratchian, 
 J. V. Ortiz, A. F. Izmaylov, J. L. Sonnenberg, D. Williams-Young, 
 F. Ding, F. Lipparini, F. Egidi, J. Goings, B. Peng, A. Petrone, 
 T. Henderson, D. Ranasinghe, V. G. Zakrzewski, J. Gao, N. Rega, 
 G. Zheng, W. Liang, M. Hada, M. Ehara, K. Toyota, R. Fukuda, 
 J. Hasegawa, M. Ishida, T. Nakajima, Y. Honda, O. Kitao, H. Nakai, 
 T. Vreven, K. Throssell, J. A. Montgomery, Jr., J. E. Peralta, 
 F. Ogliaro, M. J. Bearpark, J. J. Heyd, E. N. Brothers, K. N. Kudin, 
 V. N. Staroverov, T. A. Keith, R. Kobayashi, J. Normand, 
 K. Raghavachari, A. P. Rendell, J. C. Burant, S. S. Iyengar, 
 J. Tomasi, M. Cossi, J. M. Millam, M. Klene, C. Adamo, R. Cammi, 
 J. W. Ochterski, R. L. Martin, K. Morokuma, O. Farkas, 
 J. B. Foresman, and D. J. Fox, Gaussian, Inc., Wallingford CT, 2019.
 
 ******************************************
 Gaussian 16:  AM64L-G16RevC.01  3-Jul-2019
                27-Jan-2021 
 ******************************************
 %chk=VIII_gtc_Best_geom_HF_jun-cc-pV5Z.chk
 %nprocshared=16
 Will use up to   16 processors via shared memory.
 %mem=100GB
 -----------------
 #P HF jun-cc-pV5Z
 -----------------
 1/38=1,172=1/1;
 2/12=2,17=6,18=5,40=1/2;
 3/5=16,6=3,7=60,11=9,25=1,30=1/1,2,3;
 4//1;
 5/5=2,38=5/2;
 6/7=2,8=2,9=2,10=2,28=1/1;
 99/5=1,9=1/99;
 Leave Link    1 at Wed Jan 27 00:08:03 2021, MaxMem= 13421772800 cpu:               0.3 elap:               0.0
 (Enter /data2/software/Gaussian/g16_c01-gpu/g16/l101.exe)
 -------
 VIII_SP
 -------
 Symbolic Z-matrix:
 Charge =  0 Multiplicity = 1
 C
 O                    1    B1
 O                    1    B2       2    A1
 H                    2    B3       1    A2       3    D1       0
 C                    1    B4       3    A3       2    D2       0
 N                    5    B5       1    A4       3    D3       0
 H                    5    B6       1    A5       3    D4       0
 H                    5    B7       1    A6       3    D5       0
 H                    6    B8       5    A7       1    D6       0
 H                    6    B9       5    A8       1    D7       0
       Variables:
  B1                    1.35064                  
  B2                    1.19653                  
  B3                    0.96165                  
  B4                    1.51406                  
  B5                    1.44636                  
  B6                    1.09684                  
  B7                    1.09378                  
  B8                    1.00807                  
  B9                    1.0126                   
  A1                  120.39321                  
  A2                  110.57402                  
  A3                  124.09641                  
  A4                  110.35148                  
  A5                  106.10493                  
  A6                  108.59165                  
  A7                  112.08781                  
  A8                  109.66844                  
  D1                 -178.19299                  
  D2                  178.41709                  
  D3                   14.53424                  
  D4                 -109.33023                  
  D5                  135.75133                  
  D6                 -144.9572                   
  D7                  -23.85712                  
 
 ITRead=  0  0  0  0  0  0  0  0  0  0
 MicOpt= -1 -1 -1 -1 -1 -1 -1 -1 -1 -1
 NAtoms=     10 NQM=       10 NQMF=       0 NMMI=      0 NMMIF=      0
                NMic=       0 NMicF=      0.
                    Isotopes and Nuclear Properties:
 (Nuclear quadrupole moments (NQMom) in fm**2, nuclear magnetic moments (NMagM)
  in nuclear magnetons)

  Atom         1           2           3           4           5           6           7           8           9          10
 IAtWgt=          12          16          16           1          12          14           1           1           1           1
 AtmWgt=  12.0000000  15.9949146  15.9949146   1.0078250  12.0000000  14.0030740   1.0078250   1.0078250   1.0078250   1.0078250
 NucSpn=           0           0           0           1           0           2           1           1           1           1
 AtZEff=  -0.0000000  -0.0000000  -0.0000000  -0.0000000  -0.0000000  -0.0000000  -0.0000000  -0.0000000  -0.0000000  -0.0000000
 NQMom=    0.0000000   0.0000000   0.0000000   0.0000000   0.0000000   2.0440000   0.0000000   0.0000000   0.0000000   0.0000000
 NMagM=    0.0000000   0.0000000   0.0000000   2.7928460   0.0000000   0.4037610   2.7928460   2.7928460   2.7928460   2.7928460
 AtZNuc=   6.0000000   8.0000000   8.0000000   1.0000000   6.0000000   7.0000000   1.0000000   1.0000000   1.0000000   1.0000000
 Leave Link  101 at Wed Jan 27 00:08:03 2021, MaxMem= 13421772800 cpu:               1.7 elap:               0.1
 (Enter /data2/software/Gaussian/g16_c01-gpu/g16/l202.exe)
                          Input orientation:                          
 ---------------------------------------------------------------------
 Center     Atomic      Atomic             Coordinates (Angstroms)
 Number     Number       Type             X           Y           Z
 ---------------------------------------------------------------------
      1          6           0        0.000000    0.000000    0.000000
      2          8           0        0.000000    0.000000    1.350639
      3          8           0        1.032094    0.000000   -0.605362
      4          1           0       -0.899872   -0.028390    1.688581
      5          6           0       -1.366212    0.034634   -0.651657
      6          7           0       -1.259382   -0.273721   -2.060724
      7          1           0       -1.777130    1.030203   -0.444170
      8          1           0       -2.010889   -0.691992   -0.148913
      9          1           0       -1.923118    0.245663   -2.613800
     10          1           0       -0.324127   -0.061947   -2.385997
 ---------------------------------------------------------------------
                    Distance matrix (angstroms):
                    1          2          3          4          5
     1  C    0.000000
     2  O    1.350639   0.000000
     3  O    1.196529   2.211596   0.000000
     4  H    1.913604   0.961655   2.999245   0.000000
     5  C    1.514065   2.424237   2.399003   2.387082   0.000000
     6  N    2.430545   3.646692   2.728345   3.774483   1.446363
     7  H    2.101617   2.727792   2.996505   2.537484   1.096842
     8  H    2.131831   2.602150   3.153878   2.247468   1.093775
     9  H    3.254333   4.413106   3.581543   4.430871   2.050532
    10  H    2.408709   3.751179   2.239160   4.115191   2.025638
                    6          7          8          9         10
     6  N    0.000000
     7  H    2.140450   0.000000
     8  H    2.096362   1.762889   0.000000
     9  H    1.008066   2.311733   2.638668   0.000000
    10  H    1.012597   2.659831   2.871701   1.644168   0.000000
 Stoichiometry    C2H5NO2
 Framework group  C1[X(C2H5NO2)]
 Deg. of freedom    24
 Full point group                 C1      NOp   1
 Largest Abelian subgroup         C1      NOp   1
 Largest concise Abelian subgroup C1      NOp   1
                         Standard orientation:                         
 ---------------------------------------------------------------------
 Center     Atomic      Atomic             Coordinates (Angstroms)
 Number     Number       Type             X           Y           Z
 ---------------------------------------------------------------------
      1          6           0        0.546143    0.148212    0.012628
      2          8           0        1.729714   -0.499968   -0.044362
      3          8           0        0.511357    1.343991    0.036745
      4          1           0        1.592593   -1.450896   -0.085742
      5          6           0       -0.679769   -0.738038    0.076616
      6          7           0       -1.874850    0.037759   -0.172157
      7          1           0       -0.657798   -1.217003    1.063110
      8          1           0       -0.576213   -1.530916   -0.669685
      9          1           0       -2.658726   -0.288884    0.371019
     10          1           0       -1.702724    1.010149    0.051861
 ---------------------------------------------------------------------
 Rotational constants (GHZ):          10.3415312           4.0158603           2.9691541
 Leave Link  202 at Wed Jan 27 00:08:03 2021, MaxMem= 13421772800 cpu:               0.1 elap:               0.0
 (Enter /data2/software/Gaussian/g16_c01-gpu/g16/l301.exe)
 Standard basis: Jun-CC-pV5Z (5D, 7F)
 Ernie: Thresh=  0.10000D-02 Tol=  0.10000D-05 Strict=F.
 Ernie:  20 primitive shells out of 325 were deleted.
 There are  1155 symmetry adapted cartesian basis functions of A   symmetry.
 There are   855 symmetry adapted basis functions of A   symmetry.
   855 basis functions,  1285 primitive gaussians,  1155 cartesian basis functions
    20 alpha electrons       20 beta electrons
       nuclear repulsion energy       180.5379066241 Hartrees.
 IExCor=    0 DFT=F Ex=HF Corr=None ExCW=0 ScaHFX=  1.000000
 ScaDFX=  1.000000  1.000000  1.000000  1.000000 ScalE2=  1.000000  1.000000
 IRadAn=      5 IRanWt=     -1 IRanGd=            0 ICorTp=0 IEmpDi=  4
 NAtoms=   10 NActive=   10 NUniq=   10 SFac= 1.00D+00 NAtFMM=   60 NAOKFM=F Big=F
 Integral buffers will be    131072 words long.
 Raffenetti 1 integral format.
 Two-electron integral symmetry is turned on.
 Leave Link  301 at Wed Jan 27 00:08:03 2021, MaxMem= 13421772800 cpu:               0.7 elap:               0.1
 (Enter /data2/software/Gaussian/g16_c01-gpu/g16/l302.exe)
 NPDir=0 NMtPBC=     1 NCelOv=     1 NCel=       1 NClECP=     1 NCelD=      1
         NCelK=      1 NCelE2=     1 NClLst=     1 CellRange=     0.0.
 One-electron integrals computed using PRISM.
 One-electron integral symmetry used in STVInt
 NBasis=   855 RedAO= T EigKep=  1.05D-06  NBF=   855
 NBsUse=   855 1.00D-06 EigRej= -1.00D+00 NBFU=   855
 Leave Link  302 at Wed Jan 27 00:08:06 2021, MaxMem= 13421772800 cpu:              40.7 elap:               2.6
 (Enter /data2/software/Gaussian/g16_c01-gpu/g16/l303.exe)
 DipDrv:  MaxL=1.
 Leave Link  303 at Wed Jan 27 00:08:06 2021, MaxMem= 13421772800 cpu:               2.3 elap:               0.2
 (Enter /data2/software/Gaussian/g16_c01-gpu/g16/l401.exe)
 ExpMin= 2.72D-02 ExpMax= 1.64D+05 ExpMxC= 5.16D+02 IAcc=3 IRadAn=         5 AccDes= 0.00D+00
 Harris functional with IExCor=  205 and IRadAn=       5 diagonalized for initial guess.
 HarFok:  IExCor=  205 AccDes= 0.00D+00 IRadAn=         5 IDoV= 1 UseB2=F ITyADJ=14
 ICtDFT=  3500011 ScaDFX=  1.000000  1.000000  1.000000  1.000000
 FoFCou: FMM=F IPFlag=           0 FMFlag=      100000 FMFlg1=           0
         NFxFlg=           0 DoJE=T BraDBF=F KetDBF=T FulRan=T
         wScrn=  0.000000 ICntrl=       500 IOpCl=  0 I1Cent=   200000004 NGrid=           0
         NMat0=    1 NMatS0=      1 NMatT0=    0 NMatD0=    1 NMtDS0=    0 NMtDT0=    0
 Petite list used in FoFCou.
 Harris En= -283.254687599205    
 JPrj=0 DoOrth=F DoCkMO=F.
 Leave Link  401 at Wed Jan 27 00:08:11 2021, MaxMem= 13421772800 cpu:              81.6 elap:               5.2
 (Enter /data2/software/Gaussian/g16_c01-gpu/g16/l502.exe)
 Integral symmetry usage will be decided dynamically.
 Closed shell SCF:
 Using DIIS extrapolation, IDIIS=  1040.
 NGot= 13421772800 LenX= 13419077574 LenY= 13417742394
 Requested convergence on RMS density matrix=1.00D-08 within 128 cycles.
 Requested convergence on MAX density matrix=1.00D-06.
 Requested convergence on             energy=1.00D-06.
 No special actions if energy rises.
 Fock matrices will be formed incrementally for  20 cycles.

 Cycle   1  Pass 1  IDiag  1:
 FoFJK:  IHMeth= 1 ICntrl=       0 DoSepK=F KAlg= 0 I1Cent=           0 FoldK=F
 IRaf= 960000000 NMat=       1 IRICut=       1 DoRegI=T DoRafI=F ISym2E= 0 IDoP0=0 IntGTp=1.
 FoFCou: FMM=F IPFlag=           0 FMFlag=      100000 FMFlg1=           0
         NFxFlg=           0 DoJE=F BraDBF=F KetDBF=F FulRan=T
         wScrn=  0.000000 ICntrl=         0 IOpCl=  0 I1Cent=           0 NGrid=           0
         NMat0=    1 NMatS0=      1 NMatT0=    0 NMatD0=    1 NMtDS0=    0 NMtDT0=    0
 Symmetry not used in FoFCou.
 E= -282.712947493595    
 DIIS: error= 1.75D-02 at cycle   1 NSaved=   1.
 NSaved= 1 IEnMin= 1 EnMin= -282.712947493595     IErMin= 1 ErrMin= 1.75D-02
 ErrMax= 1.75D-02  0.00D+00 EMaxC= 1.00D-01 BMatC= 6.71D-01 BMatP= 6.71D-01
 IDIUse=3 WtCom= 8.25D-01 WtEn= 1.75D-01
 Coeff-Com:  0.100D+01
 Coeff-En:   0.100D+01
 Coeff:      0.100D+01
 Gap=     0.511 Goal=   None    Shift=    0.000
 GapD=    0.511 DampG=2.000 DampE=0.500 DampFc=1.0000 IDamp=-1.
 RMSDP=5.23D-04 MaxDP=8.34D-02              OVMax= 1.29D-01

 Cycle   2  Pass 1  IDiag  1:
 RMSU=  5.01D-04    CP:  9.31D-01
 E= -282.902421794419     Delta-E=       -0.189474300823 Rises=F Damp=F
 DIIS: error= 1.13D-02 at cycle   2 NSaved=   2.
 NSaved= 2 IEnMin= 2 EnMin= -282.902421794419     IErMin= 2 ErrMin= 1.13D-02
 ErrMax= 1.13D-02  0.00D+00 EMaxC= 1.00D-01 BMatC= 8.99D-02 BMatP= 6.71D-01
 IDIUse=3 WtCom= 8.87D-01 WtEn= 1.13D-01
 Coeff-Com:  0.195D+00 0.805D+00
 Coeff-En:   0.000D+00 0.100D+01
 Coeff:      0.173D+00 0.827D+00
 Gap=     0.472 Goal=   None    Shift=    0.000
 RMSDP=1.61D-04 MaxDP=2.11D-02 DE=-1.89D-01 OVMax= 6.05D-02

 Cycle   3  Pass 1  IDiag  1:
 RMSU=  1.43D-04    CP:  9.45D-01  8.68D-01
 E= -282.954536693192     Delta-E=       -0.052114898773 Rises=F Damp=F
 DIIS: error= 3.69D-03 at cycle   3 NSaved=   3.
 NSaved= 3 IEnMin= 3 EnMin= -282.954536693192     IErMin= 3 ErrMin= 3.69D-03
 ErrMax= 3.69D-03  0.00D+00 EMaxC= 1.00D-01 BMatC= 1.34D-02 BMatP= 8.99D-02
 IDIUse=3 WtCom= 9.63D-01 WtEn= 3.69D-02
 Coeff-Com: -0.252D-01 0.250D+00 0.775D+00
 Coeff-En:   0.000D+00 0.000D+00 0.100D+01
 Coeff:     -0.243D-01 0.241D+00 0.784D+00
 Gap=     0.440 Goal=   None    Shift=    0.000
 RMSDP=4.39D-05 MaxDP=5.84D-03 DE=-5.21D-02 OVMax= 2.89D-02

 Cycle   4  Pass 1  IDiag  1:
 RMSU=  2.89D-05    CP:  9.42D-01  9.14D-01  8.41D-01
 E= -282.962959817784     Delta-E=       -0.008423124592 Rises=F Damp=F
 DIIS: error= 1.07D-03 at cycle   4 NSaved=   4.
 NSaved= 4 IEnMin= 4 EnMin= -282.962959817784     IErMin= 4 ErrMin= 1.07D-03
 ErrMax= 1.07D-03  0.00D+00 EMaxC= 1.00D-01 BMatC= 4.18D-04 BMatP= 1.34D-02
 IDIUse=3 WtCom= 9.89D-01 WtEn= 1.07D-02
 Coeff-Com: -0.113D-01 0.571D-01 0.241D+00 0.713D+00
 Coeff-En:   0.000D+00 0.000D+00 0.000D+00 0.100D+01
 Coeff:     -0.111D-01 0.565D-01 0.238D+00 0.717D+00
 Gap=     0.434 Goal=   None    Shift=    0.000
 RMSDP=9.95D-06 MaxDP=1.10D-03 DE=-8.42D-03 OVMax= 5.22D-03

 Cycle   5  Pass 1  IDiag  1:
 RMSU=  9.06D-06    CP:  9.42D-01  9.16D-01  8.66D-01  9.35D-01
 E= -282.963317199049     Delta-E=       -0.000357381264 Rises=F Damp=F
 DIIS: error= 2.57D-04 at cycle   5 NSaved=   5.
 NSaved= 5 IEnMin= 5 EnMin= -282.963317199049     IErMin= 5 ErrMin= 2.57D-04
 ErrMax= 2.57D-04  0.00D+00 EMaxC= 1.00D-01 BMatC= 3.04D-05 BMatP= 4.18D-04
 IDIUse=3 WtCom= 9.97D-01 WtEn= 2.57D-03
 Coeff-Com:  0.223D-02-0.240D-01-0.792D-01 0.315D-01 0.107D+01
 Coeff-En:   0.000D+00 0.000D+00 0.000D+00 0.000D+00 0.100D+01
 Coeff:      0.222D-02-0.239D-01-0.790D-01 0.315D-01 0.107D+01
 Gap=     0.436 Goal=   None    Shift=    0.000
 RMSDP=5.79D-06 MaxDP=5.86D-04 DE=-3.57D-04 OVMax= 3.87D-03

 Cycle   6  Pass 1  IDiag  1:
 RMSU=  2.94D-06    CP:  9.42D-01  9.16D-01  8.76D-01  1.08D+00  1.26D+00
 E= -282.963374859416     Delta-E=       -0.000057660367 Rises=F Damp=F
 DIIS: error= 1.09D-04 at cycle   6 NSaved=   6.
 NSaved= 6 IEnMin= 6 EnMin= -282.963374859416     IErMin= 6 ErrMin= 1.09D-04
 ErrMax= 1.09D-04  0.00D+00 EMaxC= 1.00D-01 BMatC= 4.35D-06 BMatP= 3.04D-05
 IDIUse=3 WtCom= 9.99D-01 WtEn= 1.09D-03
 Coeff-Com:  0.144D-02-0.102D-01-0.367D-01-0.759D-01 0.175D+00 0.946D+00
 Coeff-En:   0.000D+00 0.000D+00 0.000D+00 0.000D+00 0.000D+00 0.100D+01
 Coeff:      0.144D-02-0.102D-01-0.367D-01-0.759D-01 0.175D+00 0.946D+00
 Gap=     0.436 Goal=   None    Shift=    0.000
 RMSDP=2.19D-06 MaxDP=2.01D-04 DE=-5.77D-05 OVMax= 1.15D-03

 Cycle   7  Pass 1  IDiag  1:
 RMSU=  1.08D-06    CP:  9.43D-01  9.15D-01  8.80D-01  1.11D+00  1.40D+00
                    CP:  1.25D+00
 E= -282.963383116282     Delta-E=       -0.000008256866 Rises=F Damp=F
 DIIS: error= 4.41D-05 at cycle   7 NSaved=   7.
 NSaved= 7 IEnMin= 7 EnMin= -282.963383116282     IErMin= 7 ErrMin= 4.41D-05
 ErrMax= 4.41D-05  0.00D+00 EMaxC= 1.00D-01 BMatC= 5.79D-07 BMatP= 4.35D-06
 IDIUse=1 WtCom= 1.00D+00 WtEn= 0.00D+00
 Coeff-Com: -0.197D-03 0.245D-02 0.100D-01-0.156D-01-0.120D+00 0.256D-01
 Coeff-Com:  0.110D+01
 Coeff:     -0.197D-03 0.245D-02 0.100D-01-0.156D-01-0.120D+00 0.256D-01
 Coeff:      0.110D+01
 Gap=     0.436 Goal=   None    Shift=    0.000
 RMSDP=9.37D-07 MaxDP=8.92D-05 DE=-8.26D-06 OVMax= 7.53D-04

 Cycle   8  Pass 1  IDiag  1:
 RMSU=  3.38D-07    CP:  9.43D-01  9.15D-01  8.81D-01  1.12D+00  1.44D+00
                    CP:  1.47D+00  1.34D+00
 E= -282.963384602927     Delta-E=       -0.000001486645 Rises=F Damp=F
 DIIS: error= 1.05D-05 at cycle   8 NSaved=   8.
 NSaved= 8 IEnMin= 8 EnMin= -282.963384602927     IErMin= 8 ErrMin= 1.05D-05
 ErrMax= 1.05D-05  0.00D+00 EMaxC= 1.00D-01 BMatC= 8.23D-08 BMatP= 5.79D-07
 IDIUse=1 WtCom= 1.00D+00 WtEn= 0.00D+00
 Coeff-Com: -0.175D-03 0.117D-02 0.442D-02 0.638D-02-0.546D-02-0.123D+00
 Coeff-Com: -0.113D+00 0.123D+01
 Coeff:     -0.175D-03 0.117D-02 0.442D-02 0.638D-02-0.546D-02-0.123D+00
 Coeff:     -0.113D+00 0.123D+01
 Gap=     0.436 Goal=   None    Shift=    0.000
 RMSDP=3.80D-07 MaxDP=3.98D-05 DE=-1.49D-06 OVMax= 3.13D-04

 Cycle   9  Pass 1  IDiag  1:
 RMSU=  1.47D-07    CP:  9.43D-01  9.15D-01  8.81D-01  1.12D+00  1.45D+00
                    CP:  1.52D+00  1.54D+00  1.55D+00
 E= -282.963384825309     Delta-E=       -0.000000222382 Rises=F Damp=F
 DIIS: error= 4.06D-06 at cycle   9 NSaved=   9.
 NSaved= 9 IEnMin= 9 EnMin= -282.963384825309     IErMin= 9 ErrMin= 4.06D-06
 ErrMax= 4.06D-06  0.00D+00 EMaxC= 1.00D-01 BMatC= 1.09D-08 BMatP= 8.23D-08
 IDIUse=1 WtCom= 1.00D+00 WtEn= 0.00D+00
 Coeff-Com: -0.104D-04-0.754D-04-0.306D-03 0.242D-02 0.161D-01-0.287D-01
 Coeff-Com: -0.159D+00 0.238D+00 0.932D+00
 Coeff:     -0.104D-04-0.754D-04-0.306D-03 0.242D-02 0.161D-01-0.287D-01
 Coeff:     -0.159D+00 0.238D+00 0.932D+00
 Gap=     0.436 Goal=   None    Shift=    0.000
 RMSDP=1.09D-07 MaxDP=1.16D-05 DE=-2.22D-07 OVMax= 9.10D-05

 Cycle  10  Pass 1  IDiag  1:
 RMSU=  5.44D-08    CP:  9.43D-01  9.15D-01  8.81D-01  1.12D+00  1.46D+00
                    CP:  1.53D+00  1.57D+00  1.78D+00  1.23D+00
 E= -282.963384847127     Delta-E=       -0.000000021818 Rises=F Damp=F
 DIIS: error= 1.26D-06 at cycle  10 NSaved=  10.
 NSaved=10 IEnMin=10 EnMin= -282.963384847127     IErMin=10 ErrMin= 1.26D-06
 ErrMax= 1.26D-06  0.00D+00 EMaxC= 1.00D-01 BMatC= 1.18D-09 BMatP= 1.09D-08
 IDIUse=1 WtCom= 1.00D+00 WtEn= 0.00D+00
 Coeff-Com:  0.251D-04-0.186D-03-0.644D-03-0.123D-02 0.205D-02 0.166D-01
 Coeff-Com:  0.136D-01-0.180D+00 0.344D-01 0.112D+01
 Coeff:      0.251D-04-0.186D-03-0.644D-03-0.123D-02 0.205D-02 0.166D-01
 Coeff:      0.136D-01-0.180D+00 0.344D-01 0.112D+01
 Gap=     0.436 Goal=   None    Shift=    0.000
 RMSDP=4.93D-08 MaxDP=4.84D-06 DE=-2.18D-08 OVMax= 2.91D-05

 Cycle  11  Pass 1  IDiag  1:
 RMSU=  1.63D-08    CP:  9.43D-01  9.15D-01  8.81D-01  1.12D+00  1.46D+00
                    CP:  1.52D+00  1.57D+00  1.85D+00  1.45D+00  1.35D+00
 E= -282.963384849824     Delta-E=       -0.000000002697 Rises=F Damp=F
 DIIS: error= 2.45D-07 at cycle  11 NSaved=  11.
 NSaved=11 IEnMin=11 EnMin= -282.963384849824     IErMin=11 ErrMin= 2.45D-07
 ErrMax= 2.45D-07  0.00D+00 EMaxC= 1.00D-01 BMatC= 6.93D-11 BMatP= 1.18D-09
 IDIUse=1 WtCom= 1.00D+00 WtEn= 0.00D+00
 Coeff-Com: -0.647D-06 0.130D-04 0.757D-04-0.106D-03-0.103D-02 0.112D-03
 Coeff-Com:  0.971D-02 0.280D-02-0.745D-01-0.135D+00 0.120D+01
 Coeff:     -0.647D-06 0.130D-04 0.757D-04-0.106D-03-0.103D-02 0.112D-03
 Coeff:      0.971D-02 0.280D-02-0.745D-01-0.135D+00 0.120D+01
 Gap=     0.436 Goal=   None    Shift=    0.000
 RMSDP=1.39D-08 MaxDP=1.13D-06 DE=-2.70D-09 OVMax= 5.43D-06

 Cycle  12  Pass 1  IDiag  1:
 RMSU=  4.32D-09    CP:  9.43D-01  9.15D-01  8.81D-01  1.12D+00  1.46D+00
                    CP:  1.52D+00  1.57D+00  1.86D+00  1.48D+00  1.50D+00
                    CP:  1.41D+00
 E= -282.963384849993     Delta-E=       -0.000000000170 Rises=F Damp=F
 DIIS: error= 8.13D-08 at cycle  12 NSaved=  12.
 NSaved=12 IEnMin=12 EnMin= -282.963384849993     IErMin=12 ErrMin= 8.13D-08
 ErrMax= 8.13D-08  0.00D+00 EMaxC= 1.00D-01 BMatC= 3.69D-12 BMatP= 6.93D-11
 IDIUse=1 WtCom= 1.00D+00 WtEn= 0.00D+00
 Coeff-Com: -0.152D-05 0.110D-04 0.391D-04 0.748D-04-0.867D-04-0.109D-02
 Coeff-Com: -0.155D-02 0.129D-01-0.672D-03-0.688D-01-0.306D-01 0.109D+01
 Coeff:     -0.152D-05 0.110D-04 0.391D-04 0.748D-04-0.867D-04-0.109D-02
 Coeff:     -0.155D-02 0.129D-01-0.672D-03-0.688D-01-0.306D-01 0.109D+01
 Gap=     0.436 Goal=   None    Shift=    0.000
 RMSDP=2.98D-09 MaxDP=2.21D-07 DE=-1.70D-10 OVMax= 1.01D-06

 SCF Done:  E(RHF) =  -282.963384850     A.U. after   12 cycles
            NFock= 12  Conv=0.30D-08     -V/T= 2.0010
 KE= 2.826745057695D+02 PE=-1.027408211634D+03 EE= 2.812324143904D+02
 Leave Link  502 at Wed Jan 27 00:51:49 2021, MaxMem= 13421772800 cpu:           41892.1 elap:            2617.6
 (Enter /data2/software/Gaussian/g16_c01-gpu/g16/l601.exe)
 Copying SCF densities to generalized density rwf, IOpCl= 0 IROHF=0.

 **********************************************************************

            Population analysis using the SCF Density.

 **********************************************************************

 Orbital symmetries:
       Occupied  (A) (A) (A) (A) (A) (A) (A) (A) (A) (A) (A) (A)
                 (A) (A) (A) (A) (A) (A) (A) (A)
       Virtual   (A) (A) (A) (A) (A) (A) (A) (A) (A) (A) (A) (A)
                 (A) (A) (A) (A) (A) (A) (A) (A) (A) (A) (A) (A)
                 (A) (A) (A) (A) (A) (A) (A) (A) (A) (A) (A) (A)
                 (A) (A) (A) (A) (A) (A) (A) (A) (A) (A) (A) (A)
                 (A) (A) (A) (A) (A) (A) (A) (A) (A) (A) (A) (A)
                 (A) (A) (A) (A) (A) (A) (A) (A) (A) (A) (A) (A)
                 (A) (A) (A) (A) (A) (A) (A) (A) (A) (A) (A) (A)
                 (A) (A) (A) (A) (A) (A) (A) (A) (A) (A) (A) (A)
                 (A) (A) (A) (A) (A) (A) (A) (A) (A) (A) (A) (A)
                 (A) (A) (A) (A) (A) (A) (A) (A) (A) (A) (A) (A)
                 (A) (A) (A) (A) (A) (A) (A) (A) (A) (A) (A) (A)
                 (A) (A) (A) (A) (A) (A) (A) (A) (A) (A) (A) (A)
                 (A) (A) (A) (A) (A) (A) (A) (A) (A) (A) (A) (A)
                 (A) (A) (A) (A) (A) (A) (A) (A) (A) (A) (A) (A)
                 (A) (A) (A) (A) (A) (A) (A) (A) (A) (A) (A) (A)
                 (A) (A) (A) (A) (A) (A) (A) (A) (A) (A) (A) (A)
                 (A) (A) (A) (A) (A) (A) (A) (A) (A) (A) (A) (A)
                 (A) (A) (A) (A) (A) (A) (A) (A) (A) (A) (A) (A)
                 (A) (A) (A) (A) (A) (A) (A) (A) (A) (A) (A) (A)
                 (A) (A) (A) (A) (A) (A) (A) (A) (A) (A) (A) (A)
                 (A) (A) (A) (A) (A) (A) (A) (A) (A) (A) (A) (A)
                 (A) (A) (A) (A) (A) (A) (A) (A) (A) (A) (A) (A)
                 (A) (A) (A) (A) (A) (A) (A) (A) (A) (A) (A) (A)
                 (A) (A) (A) (A) (A) (A) (A) (A) (A) (A) (A) (A)
                 (A) (A) (A) (A) (A) (A) (A) (A) (A) (A) (A) (A)
                 (A) (A) (A) (A) (A) (A) (A) (A) (A) (A) (A) (A)
                 (A) (A) (A) (A) (A) (A) (A) (A) (A) (A) (A) (A)
                 (A) (A) (A) (A) (A) (A) (A) (A) (A) (A) (A) (A)
                 (A) (A) (A) (A) (A) (A) (A) (A) (A) (A) (A) (A)
                 (A) (A) (A) (A) (A) (A) (A) (A) (A) (A) (A) (A)
                 (A) (A) (A) (A) (A) (A) (A) (A) (A) (A) (A) (A)
                 (A) (A) (A) (A) (A) (A) (A) (A) (A) (A) (A) (A)
                 (A) (A) (A) (A) (A) (A) (A) (A) (A) (A) (A) (A)
                 (A) (A) (A) (A) (A) (A) (A) (A) (A) (A) (A) (A)
                 (A) (A) (A) (A) (A) (A) (A) (A) (A) (A) (A) (A)
                 (A) (A) (A) (A) (A) (A) (A) (A) (A) (A) (A) (A)
                 (A) (A) (A) (A) (A) (A) (A) (A) (A) (A) (A) (A)
                 (A) (A) (A) (A) (A) (A) (A) (A) (A) (A) (A) (A)
                 (A) (A) (A) (A) (A) (A) (A) (A) (A) (A) (A) (A)
                 (A) (A) (A) (A) (A) (A) (A) (A) (A) (A) (A) (A)
                 (A) (A) (A) (A) (A) (A) (A) (A) (A) (A) (A) (A)
                 (A) (A) (A) (A) (A) (A) (A) (A) (A) (A) (A) (A)
                 (A) (A) (A) (A) (A) (A) (A) (A) (A) (A) (A) (A)
                 (A) (A) (A) (A) (A) (A) (A) (A) (A) (A) (A) (A)
                 (A) (A) (A) (A) (A) (A) (A) (A) (A) (A) (A) (A)
                 (A) (A) (A) (A) (A) (A) (A) (A) (A) (A) (A) (A)
                 (A) (A) (A) (A) (A) (A) (A) (A) (A) (A) (A) (A)
                 (A) (A) (A) (A) (A) (A) (A) (A) (A) (A) (A) (A)
                 (A) (A) (A) (A) (A) (A) (A) (A) (A) (A) (A) (A)
                 (A) (A) (A) (A) (A) (A) (A) (A) (A) (A) (A) (A)
                 (A) (A) (A) (A) (A) (A) (A) (A) (A) (A) (A) (A)
                 (A) (A) (A) (A) (A) (A) (A) (A) (A) (A) (A) (A)
                 (A) (A) (A) (A) (A) (A) (A) (A) (A) (A) (A) (A)
                 (A) (A) (A) (A) (A) (A) (A) (A) (A) (A) (A) (A)
                 (A) (A) (A) (A) (A) (A) (A) (A) (A) (A) (A) (A)
                 (A) (A) (A) (A) (A) (A) (A) (A) (A) (A) (A) (A)
                 (A) (A) (A) (A) (A) (A) (A) (A) (A) (A) (A) (A)
                 (A) (A) (A) (A) (A) (A) (A) (A) (A) (A) (A) (A)
                 (A) (A) (A) (A) (A) (A) (A) (A) (A) (A) (A) (A)
                 (A) (A) (A) (A) (A) (A) (A) (A) (A) (A) (A) (A)
                 (A) (A) (A) (A) (A) (A) (A) (A) (A) (A) (A) (A)
                 (A) (A) (A) (A) (A) (A) (A) (A) (A) (A) (A) (A)
                 (A) (A) (A) (A) (A) (A) (A) (A) (A) (A) (A) (A)
                 (A) (A) (A) (A) (A) (A) (A) (A) (A) (A) (A) (A)
                 (A) (A) (A) (A) (A) (A) (A) (A) (A) (A) (A) (A)
                 (A) (A) (A) (A) (A) (A) (A) (A) (A) (A) (A) (A)
                 (A) (A) (A) (A) (A) (A) (A) (A) (A) (A) (A) (A)
                 (A) (A) (A) (A) (A) (A) (A) (A) (A) (A) (A) (A)
                 (A) (A) (A) (A) (A) (A) (A) (A) (A) (A) (A) (A)
                 (A) (A) (A) (A) (A) (A) (A)
 The electronic state is 1-A.
 Alpha  occ. eigenvalues --  -20.61871 -20.55017 -15.55202 -11.39021 -11.28923
 Alpha  occ. eigenvalues --   -1.47129  -1.37563  -1.20118  -0.97759  -0.83662
 Alpha  occ. eigenvalues --   -0.74610  -0.68211  -0.67390  -0.65561  -0.60264
 Alpha  occ. eigenvalues --   -0.58465  -0.56474  -0.49013  -0.46096  -0.41097
 Alpha virt. eigenvalues --    0.02487   0.03940   0.04827   0.05130   0.07262
 Alpha virt. eigenvalues --    0.07360   0.07604   0.09019   0.09605   0.11780
 Alpha virt. eigenvalues --    0.12302   0.13339   0.13632   0.14638   0.15226
 Alpha virt. eigenvalues --    0.15856   0.16841   0.17121   0.17909   0.18371
 Alpha virt. eigenvalues --    0.19356   0.20376   0.21124   0.21666   0.22963
 Alpha virt. eigenvalues --    0.23918   0.25775   0.26345   0.27429   0.28542
 Alpha virt. eigenvalues --    0.28929   0.30908   0.31126   0.31649   0.32425
 Alpha virt. eigenvalues --    0.32962   0.34480   0.34959   0.35323   0.36521
 Alpha virt. eigenvalues --    0.37898   0.38256   0.39942   0.40242   0.40871
 Alpha virt. eigenvalues --    0.41570   0.42558   0.42941   0.45777   0.47007
 Alpha virt. eigenvalues --    0.47391   0.48258   0.49210   0.51101   0.51839
 Alpha virt. eigenvalues --    0.52456   0.53092   0.53921   0.54387   0.55388
 Alpha virt. eigenvalues --    0.55902   0.58025   0.58814   0.59210   0.60433
 Alpha virt. eigenvalues --    0.61353   0.61649   0.62775   0.63577   0.63780
 Alpha virt. eigenvalues --    0.64619   0.65062   0.66340   0.66553   0.67731
 Alpha virt. eigenvalues --    0.69195   0.69390   0.70642   0.72017   0.72556
 Alpha virt. eigenvalues --    0.73338   0.74930   0.77134   0.78225   0.79850
 Alpha virt. eigenvalues --    0.80441   0.80936   0.81856   0.83719   0.85036
 Alpha virt. eigenvalues --    0.87372   0.87803   0.88057   0.88607   0.90465
 Alpha virt. eigenvalues --    0.90878   0.92677   0.96070   0.96774   0.98243
 Alpha virt. eigenvalues --    0.99186   1.01426   1.01762   1.02687   1.03190
 Alpha virt. eigenvalues --    1.05494   1.06193   1.06632   1.08931   1.10403
 Alpha virt. eigenvalues --    1.11458   1.12000   1.13612   1.14097   1.15310
 Alpha virt. eigenvalues --    1.16004   1.17103   1.17696   1.19200   1.19540
 Alpha virt. eigenvalues --    1.20897   1.21293   1.22776   1.24262   1.24970
 Alpha virt. eigenvalues --    1.25212   1.25773   1.28003   1.28466   1.28748
 Alpha virt. eigenvalues --    1.30563   1.31416   1.31957   1.32550   1.33937
 Alpha virt. eigenvalues --    1.34916   1.35125   1.35958   1.37375   1.38043
 Alpha virt. eigenvalues --    1.39684   1.40631   1.42195   1.43210   1.44618
 Alpha virt. eigenvalues --    1.46283   1.47096   1.48006   1.50354   1.51303
 Alpha virt. eigenvalues --    1.52551   1.54436   1.56537   1.57370   1.59569
 Alpha virt. eigenvalues --    1.60567   1.61526   1.63130   1.66595   1.66782
 Alpha virt. eigenvalues --    1.69361   1.70527   1.72222   1.74254   1.76594
 Alpha virt. eigenvalues --    1.78354   1.78946   1.81348   1.84506   1.86048
 Alpha virt. eigenvalues --    1.87961   1.88696   1.91199   1.92361   1.94225
 Alpha virt. eigenvalues --    1.94874   1.97890   2.00479   2.01281   2.01657
 Alpha virt. eigenvalues --    2.03310   2.05088   2.06108   2.07513   2.08687
 Alpha virt. eigenvalues --    2.08830   2.12270   2.13691   2.13809   2.15694
 Alpha virt. eigenvalues --    2.18437   2.19842   2.21288   2.22209   2.23609
 Alpha virt. eigenvalues --    2.24658   2.25829   2.26552   2.27525   2.29466
 Alpha virt. eigenvalues --    2.30328   2.33434   2.34348   2.35131   2.36238
 Alpha virt. eigenvalues --    2.37046   2.39727   2.40337   2.41516   2.43520
 Alpha virt. eigenvalues --    2.43969   2.46011   2.47901   2.49307   2.50084
 Alpha virt. eigenvalues --    2.50674   2.52048   2.52830   2.53850   2.56023
 Alpha virt. eigenvalues --    2.57379   2.60538   2.61992   2.62801   2.65065
 Alpha virt. eigenvalues --    2.66132   2.66849   2.69653   2.72076   2.73139
 Alpha virt. eigenvalues --    2.74146   2.75514   2.76812   2.77837   2.78190
 Alpha virt. eigenvalues --    2.80238   2.81409   2.83836   2.85761   2.87017
 Alpha virt. eigenvalues --    2.88428   2.88863   2.90496   2.93838   2.94753
 Alpha virt. eigenvalues --    2.95745   2.97622   2.98880   3.01925   3.04779
 Alpha virt. eigenvalues --    3.06244   3.07054   3.07634   3.09518   3.11372
 Alpha virt. eigenvalues --    3.12631   3.13397   3.14036   3.15985   3.17770
 Alpha virt. eigenvalues --    3.19021   3.20472   3.21318   3.23594   3.25045
 Alpha virt. eigenvalues --    3.26980   3.27850   3.29198   3.30214   3.31538
 Alpha virt. eigenvalues --    3.32582   3.34285   3.37446   3.38404   3.39017
 Alpha virt. eigenvalues --    3.41607   3.42088   3.43981   3.48205   3.50419
 Alpha virt. eigenvalues --    3.51562   3.53351   3.54901   3.57730   3.58927
 Alpha virt. eigenvalues --    3.61697   3.62965   3.64661   3.66269   3.68342
 Alpha virt. eigenvalues --    3.69989   3.71527   3.74770   3.75621   3.76667
 Alpha virt. eigenvalues --    3.78055   3.78963   3.81961   3.83094   3.85237
 Alpha virt. eigenvalues --    3.88649   3.89575   3.91162   3.92533   3.94718
 Alpha virt. eigenvalues --    3.95647   3.97321   3.99941   4.00688   4.02467
 Alpha virt. eigenvalues --    4.02988   4.07368   4.08433   4.11114   4.11775
 Alpha virt. eigenvalues --    4.13741   4.15221   4.18443   4.21150   4.23931
 Alpha virt. eigenvalues --    4.24917   4.30001   4.31461   4.32157   4.34017
 Alpha virt. eigenvalues --    4.38179   4.39829   4.44508   4.45778   4.47752
 Alpha virt. eigenvalues --    4.48294   4.49106   4.50814   4.54872   4.56698
 Alpha virt. eigenvalues --    4.57346   4.62480   4.63072   4.64499   4.66218
 Alpha virt. eigenvalues --    4.68275   4.70198   4.73454   4.74429   4.76961
 Alpha virt. eigenvalues --    4.77560   4.79556   4.82502   4.82738   4.87098
 Alpha virt. eigenvalues --    4.88530   4.90133   4.90510   4.92783   4.95210
 Alpha virt. eigenvalues --    4.97012   5.00930   5.00981   5.04475   5.06405
 Alpha virt. eigenvalues --    5.06687   5.07557   5.11808   5.13285   5.15068
 Alpha virt. eigenvalues --    5.17343   5.19113   5.21691   5.22367   5.23823
 Alpha virt. eigenvalues --    5.24977   5.26711   5.31905   5.32558   5.35101
 Alpha virt. eigenvalues --    5.37960   5.38820   5.41339   5.42541   5.45083
 Alpha virt. eigenvalues --    5.46175   5.48464   5.49895   5.51962   5.53658
 Alpha virt. eigenvalues --    5.54241   5.55723   5.56708   5.58833   5.60158
 Alpha virt. eigenvalues --    5.62618   5.67150   5.68062   5.71045   5.72594
 Alpha virt. eigenvalues --    5.74791   5.76505   5.80664   5.81154   5.82719
 Alpha virt. eigenvalues --    5.85163   5.86513   5.89685   5.90274   5.93197
 Alpha virt. eigenvalues --    5.97428   5.98363   6.01572   6.04040   6.04470
 Alpha virt. eigenvalues --    6.06589   6.08098   6.08643   6.14239   6.16025
 Alpha virt. eigenvalues --    6.17497   6.21645   6.22515   6.26897   6.28337
 Alpha virt. eigenvalues --    6.32378   6.35533   6.37128   6.38892   6.42076
 Alpha virt. eigenvalues --    6.45532   6.47126   6.50386   6.52887   6.57159
 Alpha virt. eigenvalues --    6.59107   6.61806   6.63557   6.68395   6.71258
 Alpha virt. eigenvalues --    6.75472   6.77598   6.78041   6.81653   6.88111
 Alpha virt. eigenvalues --    6.90549   6.92211   6.96069   6.97623   7.04284
 Alpha virt. eigenvalues --    7.07574   7.12743   7.18126   7.21792   7.24695
 Alpha virt. eigenvalues --    7.26839   7.30038   7.32605   7.34889   7.37770
 Alpha virt. eigenvalues --    7.39054   7.42259   7.44646   7.45660   7.47694
 Alpha virt. eigenvalues --    7.49517   7.52736   7.55425   7.57582   7.59593
 Alpha virt. eigenvalues --    7.61624   7.62538   7.66156   7.70745   7.73122
 Alpha virt. eigenvalues --    7.73494   7.76484   7.77576   7.78170   7.83296
 Alpha virt. eigenvalues --    7.86208   7.87923   7.89344   7.91412   7.93584
 Alpha virt. eigenvalues --    7.96538   7.99187   8.02414   8.05828   8.07238
 Alpha virt. eigenvalues --    8.11857   8.14599   8.16385   8.17759   8.20458
 Alpha virt. eigenvalues --    8.25838   8.29457   8.30660   8.32115   8.36428
 Alpha virt. eigenvalues --    8.42140   8.44351   8.46672   8.48062   8.53105
 Alpha virt. eigenvalues --    8.58883   8.61283   8.65053   8.69137   8.71373
 Alpha virt. eigenvalues --    8.74818   8.78996   8.83313   8.86783   8.90563
 Alpha virt. eigenvalues --    8.94509   8.96996   8.98023   9.04328   9.08841
 Alpha virt. eigenvalues --    9.16042   9.23275   9.25592   9.31168   9.34335
 Alpha virt. eigenvalues --    9.40715   9.43532   9.50715   9.53649   9.58015
 Alpha virt. eigenvalues --    9.66194   9.68768   9.71073   9.73021   9.81050
 Alpha virt. eigenvalues --    9.87232   9.88006   9.95444  10.00266  10.01712
 Alpha virt. eigenvalues --   10.08097  10.09343  10.14322  10.20526  10.22566
 Alpha virt. eigenvalues --   10.24635  10.34140  10.38214  10.44634  10.49523
 Alpha virt. eigenvalues --   10.52770  10.59734  10.64999  10.69170  10.73922
 Alpha virt. eigenvalues --   10.76437  10.81994  10.85382  10.88887  10.90955
 Alpha virt. eigenvalues --   10.98415  11.01199  11.06361  11.09648  11.13782
 Alpha virt. eigenvalues --   11.17244  11.20747  11.22093  11.28925  11.35298
 Alpha virt. eigenvalues --   11.41083  11.43307  11.47282  11.51292  11.53551
 Alpha virt. eigenvalues --   11.59505  11.64054  11.66555  11.70369  11.76731
 Alpha virt. eigenvalues --   11.79761  11.82132  11.85009  11.89503  11.92141
 Alpha virt. eigenvalues --   11.94810  12.05948  12.08528  12.14151  12.18436
 Alpha virt. eigenvalues --   12.22018  12.25057  12.27898  12.36846  12.42575
 Alpha virt. eigenvalues --   12.46604  12.51431  12.60977  12.67599  12.68986
 Alpha virt. eigenvalues --   12.70350  12.78457  12.78649  12.79983  12.83561
 Alpha virt. eigenvalues --   12.84696  12.87084  12.90875  12.91637  12.94870
 Alpha virt. eigenvalues --   12.95114  12.95912  12.98663  13.03941  13.06620
 Alpha virt. eigenvalues --   13.09391  13.10875  13.13468  13.15627  13.19664
 Alpha virt. eigenvalues --   13.22378  13.23846  13.24404  13.26468  13.28112
 Alpha virt. eigenvalues --   13.30210  13.33334  13.34425  13.37984  13.39067
 Alpha virt. eigenvalues --   13.40031  13.41571  13.46071  13.47746  13.49685
 Alpha virt. eigenvalues --   13.53895  13.55573  13.62631  13.65895  13.67109
 Alpha virt. eigenvalues --   13.74210  13.77322  13.80054  13.84805  13.87299
 Alpha virt. eigenvalues --   13.88129  13.90949  13.96134  13.97424  14.01779
 Alpha virt. eigenvalues --   14.04659  14.05993  14.07715  14.08350  14.09340
 Alpha virt. eigenvalues --   14.11369  14.11775  14.15471  14.16767  14.20107
 Alpha virt. eigenvalues --   14.20700  14.23041  14.25469  14.28733  14.30454
 Alpha virt. eigenvalues --   14.31804  14.34855  14.36006  14.37361  14.38509
 Alpha virt. eigenvalues --   14.43519  14.44889  14.46385  14.47268  14.50265
 Alpha virt. eigenvalues --   14.51852  14.54556  14.56571  14.58988  14.60355
 Alpha virt. eigenvalues --   14.61513  14.64688  14.68587  14.68921  14.72954
 Alpha virt. eigenvalues --   14.75137  14.79849  14.81402  14.85265  14.86096
 Alpha virt. eigenvalues --   14.88167  14.91958  14.93794  14.98984  15.00609
 Alpha virt. eigenvalues --   15.04634  15.05135  15.07066  15.11885  15.15895
 Alpha virt. eigenvalues --   15.18301  15.23643  15.26893  15.28476  15.28823
 Alpha virt. eigenvalues --   15.32437  15.42080  15.47889  15.53104  15.55193
 Alpha virt. eigenvalues --   15.57165  15.61889  15.64991  15.69232  15.76767
 Alpha virt. eigenvalues --   15.82782  15.87934  15.90313  15.97775  16.03572
 Alpha virt. eigenvalues --   16.09608  16.11566  16.14181  16.15796  16.23845
 Alpha virt. eigenvalues --   16.27523  16.28130  16.45873  16.46999  16.52635
 Alpha virt. eigenvalues --   16.55367  16.59926  16.65268  16.66454  16.71378
 Alpha virt. eigenvalues --   16.84093  16.85263  16.88693  16.91007  16.92999
 Alpha virt. eigenvalues --   16.97388  17.01365  17.09003  17.17634  17.18127
 Alpha virt. eigenvalues --   17.21447  17.22455  17.29041  17.31496  17.34920
 Alpha virt. eigenvalues --   17.36404  17.49719  17.60703  17.75208  17.87173
 Alpha virt. eigenvalues --   17.92834  17.97980  18.03553  18.04775  18.09262
 Alpha virt. eigenvalues --   18.11773  18.14500  18.19773  18.26322  18.30261
 Alpha virt. eigenvalues --   18.40688  18.49531  18.54564  18.55589  18.59575
 Alpha virt. eigenvalues --   18.62075  18.65765  18.77841  18.80081  18.94085
 Alpha virt. eigenvalues --   19.04329  19.11579  19.12920  19.23745  19.29926
 Alpha virt. eigenvalues --   19.35728  19.38582  19.41922  19.43642  19.46201
 Alpha virt. eigenvalues --   19.48850  19.52087  19.54571  19.57764  19.60495
 Alpha virt. eigenvalues --   19.65429  19.68168  19.68747  19.79615  19.82340
 Alpha virt. eigenvalues --   19.84756  19.91557  20.08474  20.09981  20.12678
 Alpha virt. eigenvalues --   20.19768  20.26743  20.45200  20.46114  20.53294
 Alpha virt. eigenvalues --   20.68315  20.74331  21.00059  21.02523  21.10820
 Alpha virt. eigenvalues --   21.11245  21.35151  21.38412  21.40534  21.68375
 Alpha virt. eigenvalues --   21.70254  21.88754  22.22707  22.48043  22.63199
 Alpha virt. eigenvalues --   22.67611  22.82440  22.83510  23.24363  23.27565
 Alpha virt. eigenvalues --   23.33437  23.66339  23.76187  23.84137  23.94393
 Alpha virt. eigenvalues --   24.25337  24.38490  24.60506  25.94883  26.40462
 Alpha virt. eigenvalues --   41.50345  43.20036  54.20024  65.27628  66.06583
          Condensed to atoms (all electrons):
               1          2          3          4          5          6
     1  C    4.109191   0.372675   0.576676  -0.033973   0.423764  -0.035621
     2  O    0.372675   8.040187  -0.080187   0.275424  -0.025312   0.003599
     3  O    0.576676  -0.080187   8.061839   0.007668  -0.031828  -0.014003
     4  H   -0.033973   0.275424   0.007668   0.326177  -0.000900   0.000561
     5  C    0.423764  -0.025312  -0.031828  -0.000900   4.575390   0.325431
     6  N   -0.035621   0.003599  -0.014003   0.000561   0.325431   6.888634
     7  H   -0.018995  -0.003735  -0.000868   0.000707   0.411747  -0.026885
     8  H   -0.018143  -0.012611   0.002646  -0.001824   0.415166  -0.056924
     9  H    0.004090  -0.000325   0.000079  -0.000093  -0.012873   0.356238
    10  H   -0.003394  -0.000007   0.001081   0.000018  -0.005959   0.348793
               7          8          9         10
     1  C   -0.018995  -0.018143   0.004090  -0.003394
     2  O   -0.003735  -0.012611  -0.000325  -0.000007
     3  O   -0.000868   0.002646   0.000079   0.001081
     4  H    0.000707  -0.001824  -0.000093   0.000018
     5  C    0.411747   0.415166  -0.012873  -0.005959
     6  N   -0.026885  -0.056924   0.356238   0.348793
     7  H    0.549208  -0.021776  -0.012861  -0.000960
     8  H   -0.021776   0.567105   0.002073   0.004546
     9  H   -0.012861   0.002073   0.361228  -0.009970
    10  H   -0.000960   0.004546  -0.009970   0.315127
 Mulliken charges:
               1
     1  C    0.623729
     2  O   -0.569709
     3  O   -0.523103
     4  H    0.426234
     5  C   -0.074627
     6  N   -0.789823
     7  H    0.124419
     8  H    0.119740
     9  H    0.312413
    10  H    0.350726
 Sum of Mulliken charges =  -0.00000
 Mulliken charges with hydrogens summed into heavy atoms:
               1
     1  C    0.623729
     2  O   -0.143475
     3  O   -0.523103
     5  C    0.169533
     6  N   -0.126684
 Electronic spatial extent (au):  <R**2>=            414.7053
 Charge=             -0.0000 electrons
 Dipole moment (field-independent basis, Debye):
    X=             -1.2861    Y=             -4.1579    Z=              1.2837  Tot=              4.5376
 Quadrupole moment (field-independent basis, Debye-Ang):
   XX=            -31.2901   YY=            -28.6197   ZZ=            -30.2697
   XY=             -3.5573   XZ=             -3.5591   YZ=              0.0308
 Traceless Quadrupole moment (field-independent basis, Debye-Ang):
   XX=             -1.2302   YY=              1.4401   ZZ=             -0.2099
   XY=             -3.5573   XZ=             -3.5591   YZ=              0.0308
 Octapole moment (field-independent basis, Debye-Ang**2):
  XXX=             -6.8434  YYY=            -10.3818  ZZZ=              1.7898  XYY=              2.1813
  XXY=             -3.9462  XXZ=              8.4073  XZZ=              3.6979  YZZ=             -0.6439
  YYZ=             -0.5438  XYZ=              0.6213
 Hexadecapole moment (field-independent basis, Debye-Ang**3):
 XXXX=           -313.8285 YYYY=           -135.7999 ZZZZ=            -37.0362 XXXY=             -6.3813
 XXXZ=            -22.7792 YYYX=            -18.9932 YYYZ=              1.6666 ZZZX=             -4.3727
 ZZZY=             -0.1087 XXYY=            -64.7720 XXZZ=            -66.0112 YYZZ=            -28.6460
 XXYZ=             -0.5514 YYXZ=             -1.6643 ZZXY=              0.4125
 N-N= 1.805379066241D+02 E-N=-1.027408214366D+03  KE= 2.826745057695D+02
 No NMR shielding tensors so no spin-rotation constants.
 Leave Link  601 at Wed Jan 27 00:51:50 2021, MaxMem= 13421772800 cpu:              17.2 elap:               1.3
 (Enter /data2/software/Gaussian/g16_c01-gpu/g16/l9999.exe)
 Unable to Open any file for archive entry.
 1\1\GINC-CU10\SP\RHF\Jun-CC-pV5Z\C2H5N1O2\ROOT\27-Jan-2021\0\\#P HF ju
 n-cc-pV5Z\\VIII_SP\\0,1\C\O,1,1.350639199\O,1,1.196528699,2,120.393214
 6\H,2,0.961654864,1,110.5740242,3,-178.19299,0\C,1,1.514064823,3,124.0
 964059,2,178.4170875,0\N,5,1.446363011,1,110.3514816,3,14.5342408,0\H,
 5,1.096841522,1,106.104928,3,-109.3302257,0\H,5,1.093775389,1,108.5916
 49,3,135.7513316,0\H,6,1.008066405,5,112.0878145,1,-144.9571968,0\H,6,
 1.012597049,5,109.6684359,1,-23.85712294,0\\Version=AM64L-G16RevC.01\S
 tate=1-A\HF=-282.9633848\RMSD=2.979e-09\Dipole=-1.6785444,0.5167122,0.
 3203261\Quadrupole=-1.6121166,-0.352944,1.9650606,-1.3469261,-2.202901
 4,-2.245331\PG=C01 [X(C2H5N1O2)]\\@
 The archive entry for this job was punched.


 OPTIMIST - A PESSIMIST WHO LACKS EXPERIENCE
 Job cpu time:       0 days 11 hours 40 minutes 44.2 seconds.
 Elapsed time:       0 days  0 hours 43 minutes 47.7 seconds.
 File lengths (MBytes):  RWF=    379 Int=      0 D2E=      0 Chk=     43 Scr=      1
 Normal termination of Gaussian 16 at Wed Jan 27 00:51:51 2021.
