 Entering Gaussian System, Link 0=g16
 Input=c7_MP2-cc-pwCVTZ-ae.gjf
 Output=c7_MP2-cc-pwCVTZ-ae.log
 AtFile(1): /home/malgo/ping/cc-pwcvtz.0.gbs
            H     0
            S    5   1.00
                  3.387000D+01           6.068000D-03
                  5.095000D+00           4.530800D-02
                  1.159000D+00           2.028220D-01
                  3.258000D-01           5.039030D-01
                  1.027000D-01           3.834210D-01
            S    1   1.00
                  3.258000D-01           1.000000D+00
            S    1   1.00
                  1.027000D-01           1.000000D+00
            P    1   1.00
                  1.407000D+00           1.000000D+00
            P    1   1.00
                  3.880000D-01           1.000000D+00
            D    1   1.00
                  1.057000D+00           1.0000000
            ****
            C     0
            S    10   1.00
               8236.0000000              0.0005310
               1235.0000000              0.0041080
                280.8000000              0.0210870
                 79.2700000              0.0818530
                 25.5900000              0.2348170
                  8.9970000              0.4344010
                  3.3190000              0.3461290
                  0.9059000              0.0393780
                  0.3643000             -0.0089830
                  0.1285000              0.0023850
            S    10   1.00
               8236.0000000             -0.0001130
               1235.0000000             -0.0008780
                280.8000000             -0.0045400
                 79.2700000             -0.0181330
                 25.5900000             -0.0557600
                  8.9970000             -0.1268950
                  3.3190000             -0.1703520
                  0.9059000              0.1403820
                  0.3643000              0.5986840
                  0.1285000              0.3953890
            S    1   1.00
                  8.828000               1.000000
            S    1   1.00
                  3.474000               1.000000
            S    1   1.00
                  0.9059000              1.0000000
            S    1   1.00
                  0.1285000              1.0000000
            P    5   1.00
                 18.7100000              0.0140310
                  4.1330000              0.0868660
                  1.2000000              0.2902160
                  0.3827000              0.5010080
                  0.1209000              0.3434060
            P    1   1.00
                 21.55200                1.000000
            P    1   1.00
                  5.442000               1.000000
            P    1   1.00
                  0.3827000              1.0000000
            P    1   1.00
                  0.1209000              1.0000000
            D    1   1.00
                  4.950000               1.000000
            D    1   1.00
                  1.0970000              1.0000000
            D    1   1.00
                  0.3180000              1.0000000
            F    1   1.00
                  0.7610000              1.0000000
            ****
            N     0
            S    10   1.00
              11420.0000000              0.0005230
               1712.0000000              0.0040450
                389.3000000              0.0207750
                110.0000000              0.0807270
                 35.5700000              0.2330740
                 12.5400000              0.4335010
                  4.6440000              0.3474720
                  1.2930000              0.0412620
                  0.5118000             -0.0085080
                  0.1787000              0.0023840
            S    10   1.00
              11420.0000000             -0.0001150
               1712.0000000             -0.0008950
                389.3000000             -0.0046240
                110.0000000             -0.0185280
                 35.5700000             -0.0573390
                 12.5400000             -0.1320760
                  4.6440000             -0.1725100
                  1.2930000              0.1518140
                  0.5118000              0.5999440
                  0.1787000              0.3874620
            S    1   1.00
                 11.80700                1.000000
            S    1   1.00
                  4.733000               1.000000
            S    1   1.00
                  1.2930000              1.0000000
            S    1   1.00
                  0.1787000              1.0000000
            P    5   1.00
                 26.6300000              0.0146700
                  5.9480000              0.0917640
                  1.7420000              0.2986830
                  0.5550000              0.4984870
                  0.1725000              0.3370230
            P    1   1.00
                 29.81800                1.000000
            P    1   1.00
                  7.743000               1.000000
            P    1   1.00
                  0.5550000              1.0000000
            P    1   1.00
                  0.1725000              1.0000000
            D    1   1.00
                  7.352000               1.000000
            D    1   1.00
                  1.6540000              1.0000000
            D    1   1.00
                  0.4690000              1.0000000
            F    1   1.00
                  1.0930000              1.0000000
            ****
            O     0
            S    10   1.00
              15330.0000000              0.0005080
               2299.0000000              0.0039290
                522.4000000              0.0202430
                147.3000000              0.0791810
                 47.5500000              0.2306870
                 16.7600000              0.4331180
                  6.2070000              0.3502600
                  1.7520000              0.0427280
                  0.6882000             -0.0081540
                  0.2384000              0.0023810
            S    10   1.00
              15330.0000000             -0.0001150
               2299.0000000             -0.0008950
                522.4000000             -0.0046360
                147.3000000             -0.0187240
                 47.5500000             -0.0584630
                 16.7600000             -0.1364630
                  6.2070000             -0.1757400
                  1.7520000              0.1609340
                  0.6882000              0.6034180
                  0.2384000              0.3787650
            S    1   1.00
                 15.38100                1.000000
            S    1   1.00
                  6.245000               1.000000
            S    1   1.00
                  1.7520000              1.0000000
            S    1   1.00
                  0.2384000              1.0000000
            P    5   1.00
                 34.4600000              0.0159280
                  7.7490000              0.0997400
                  2.2800000              0.3104920
                  0.7156000              0.4910260
                  0.2140000              0.3363370
            P    1   1.00
                 38.48400                1.000000
            P    1   1.00
                 10.21600                1.000000
            P    1   1.00
                  0.7156000              1.0000000
            P    1   1.00
                  0.2140000              1.0000000
            D    1   1.00
                 10.23800                1.000000
            D    1   1.00
                  2.3140000              1.0000000
            D    1   1.00
                  0.6450000              1.0000000
            F    1   1.00
                  1.4280000              1.0000000
            ****
 Initial command:
 /home/share/software/programs/Gaussian/g16/l1.exe "/home/qr/scratch/Gau-373598.inp" -scrdir="/home/qr/scratch/"
 Entering Link 1 = /home/share/software/programs/Gaussian/g16/l1.exe PID=    373599.
  
 Copyright (c) 1988-2019, Gaussian, Inc.  All Rights Reserved.
  
 This is part of the Gaussian(R) 16 program.  It is based on
 the Gaussian(R) 09 system (copyright 2009, Gaussian, Inc.),
 the Gaussian(R) 03 system (copyright 2003, Gaussian, Inc.),
 the Gaussian(R) 98 system (copyright 1998, Gaussian, Inc.),
 the Gaussian(R) 94 system (copyright 1995, Gaussian, Inc.),
 the Gaussian 92(TM) system (copyright 1992, Gaussian, Inc.),
 the Gaussian 90(TM) system (copyright 1990, Gaussian, Inc.),
 the Gaussian 88(TM) system (copyright 1988, Gaussian, Inc.),
 the Gaussian 86(TM) system (copyright 1986, Carnegie Mellon
 University), and the Gaussian 82(TM) system (copyright 1983,
 Carnegie Mellon University). Gaussian is a federally registered
 trademark of Gaussian, Inc.
  
 This software contains proprietary and confidential information,
 including trade secrets, belonging to Gaussian, Inc.
  
 This software is provided under written license and may be
 used, copied, transmitted, or stored only in accord with that
 written license.
  
 The following legend is applicable only to US Government
 contracts under FAR:
  
                    RESTRICTED RIGHTS LEGEND
  
 Use, reproduction and disclosure by the US Government is
 subject to restrictions as set forth in subparagraphs (a)
 and (c) of the Commercial Computer Software - Restricted
 Rights clause in FAR 52.227-19.
  
 Gaussian, Inc.
 340 Quinnipiac St., Bldg. 40, Wallingford CT 06492
  
  
 ---------------------------------------------------------------
 Warning -- This program may not be used in any manner that
 competes with the business of Gaussian, Inc. or will provide
 assistance to any competitor of Gaussian, Inc.  The licensee
 of this program is prohibited from giving any competitor of
 Gaussian, Inc. access to this program.  By using this program,
 the user acknowledges that Gaussian, Inc. is engaged in the
 business of creating and licensing software in the field of
 computational chemistry and represents and warrants to the
 licensee that it is not a competitor of Gaussian, Inc. and that
 it will not use this program in any manner prohibited above.
 ---------------------------------------------------------------
  

 Cite this work as:
 Gaussian 16, Revision C.01,
 M. J. Frisch, G. W. Trucks, H. B. Schlegel, G. E. Scuseria, 
 M. A. Robb, J. R. Cheeseman, G. Scalmani, V. Barone, 
 G. A. Petersson, H. Nakatsuji, X. Li, M. Caricato, A. V. Marenich, 
 J. Bloino, B. G. Janesko, R. Gomperts, B. Mennucci, H. P. Hratchian, 
 J. V. Ortiz, A. F. Izmaylov, J. L. Sonnenberg, D. Williams-Young, 
 F. Ding, F. Lipparini, F. Egidi, J. Goings, B. Peng, A. Petrone, 
 T. Henderson, D. Ranasinghe, V. G. Zakrzewski, J. Gao, N. Rega, 
 G. Zheng, W. Liang, M. Hada, M. Ehara, K. Toyota, R. Fukuda, 
 J. Hasegawa, M. Ishida, T. Nakajima, Y. Honda, O. Kitao, H. Nakai, 
 T. Vreven, K. Throssell, J. A. Montgomery, Jr., J. E. Peralta, 
 F. Ogliaro, M. J. Bearpark, J. J. Heyd, E. N. Brothers, K. N. Kudin, 
 V. N. Staroverov, T. A. Keith, R. Kobayashi, J. Normand, 
 K. Raghavachari, A. P. Rendell, J. C. Burant, S. S. Iyengar, 
 J. Tomasi, M. Cossi, J. M. Millam, M. Klene, C. Adamo, R. Cammi, 
 J. W. Ochterski, R. L. Martin, K. Morokuma, O. Farkas, 
 J. B. Foresman, and D. J. Fox, Gaussian, Inc., Wallingford CT, 2019.
 
 ******************************************
 Gaussian 16:  ES64L-G16RevC.01  3-Jul-2019
                 8-Jan-2021 
 ******************************************
 %nprocshared=64
 Will use up to   64 processors via shared memory.
 %mem=60GB
 %chk=c7_MP2-cc-pwCVTZ-ae.chk
 ---------------
 #p mp2=full/gen
 ---------------
 1/38=1,172=1/1;
 2/12=2,17=6,18=5,40=1/2;
 3/5=7,11=9,25=1,30=1/1,2,3;
 4//1;
 5/5=2,38=5/2;
 8/10=90/1;
 9/16=-3/6;
 6/7=2,8=2,9=2,10=2/1;
 99/5=1,9=1/99;
 Leave Link    1 at Fri Jan  8 19:29:14 2021, MaxMem=  8053063680 cpu:               3.7 elap:               0.1
 (Enter /home/share/software/programs/Gaussian/g16/l101.exe)
 ---
 opt
 ---
 Symbolic Z-matrix:
 Charge =  0 Multiplicity = 1
 C                     0.        0.        0. 
 C                     0.        0.        1.52634 
 N                     1.22887   0.        2.08333 
 H                     2.0519    0.        1.49959 
 H                     1.29974   0.        3.08427 
 O                    -1.03756   0.        2.1641 
 N                     0.57967  -1.20143  -0.56801 
 C                     1.91545  -1.3613   -0.70551 
 O                     2.70389  -0.49131  -0.35364 
 H                    -0.03319  -1.93648  -0.86793 
 C                     2.37627  -2.6591   -1.31095 
 H                     3.03665  -2.4348   -2.14487 
 H                     1.5543   -3.28348  -1.6534 
 H                     2.95121  -3.20161  -0.5632 
 H                     0.56597   0.86302  -0.35125 
 H                    -1.02785   0.07464  -0.33971 
 
 ITRead=  0  0  0  0  0  0  0  0  0  0  0  0  0  0  0  0
 MicOpt= -1 -1 -1 -1 -1 -1 -1 -1 -1 -1 -1 -1 -1 -1 -1 -1
 NAtoms=     16 NQM=       16 NQMF=       0 NMMI=      0 NMMIF=      0
                NMic=       0 NMicF=      0.
                    Isotopes and Nuclear Properties:
 (Nuclear quadrupole moments (NQMom) in fm**2, nuclear magnetic moments (NMagM)
  in nuclear magnetons)

  Atom         1           2           3           4           5           6           7           8           9          10
 IAtWgt=          12          12          14           1           1          16          14          12          16           1
 AtmWgt=  12.0000000  12.0000000  14.0030740   1.0078250   1.0078250  15.9949146  14.0030740  12.0000000  15.9949146   1.0078250
 NucSpn=           0           0           2           1           1           0           2           0           0           1
 AtZEff=  -0.0000000  -0.0000000  -0.0000000  -0.0000000  -0.0000000  -0.0000000  -0.0000000  -0.0000000  -0.0000000  -0.0000000
 NQMom=    0.0000000   0.0000000   2.0440000   0.0000000   0.0000000   0.0000000   2.0440000   0.0000000   0.0000000   0.0000000
 NMagM=    0.0000000   0.0000000   0.4037610   2.7928460   2.7928460   0.0000000   0.4037610   0.0000000   0.0000000   2.7928460
 AtZNuc=   6.0000000   6.0000000   7.0000000   1.0000000   1.0000000   8.0000000   7.0000000   6.0000000   8.0000000   1.0000000

  Atom        11          12          13          14          15          16
 IAtWgt=          12           1           1           1           1           1
 AtmWgt=  12.0000000   1.0078250   1.0078250   1.0078250   1.0078250   1.0078250
 NucSpn=           0           1           1           1           1           1
 AtZEff=  -0.0000000  -0.0000000  -0.0000000  -0.0000000  -0.0000000  -0.0000000
 NQMom=    0.0000000   0.0000000   0.0000000   0.0000000   0.0000000   0.0000000
 NMagM=    0.0000000   2.7928460   2.7928460   2.7928460   2.7928460   2.7928460
 AtZNuc=   6.0000000   1.0000000   1.0000000   1.0000000   1.0000000   1.0000000
 Leave Link  101 at Fri Jan  8 19:29:14 2021, MaxMem=  8053063680 cpu:               7.7 elap:               0.2
 (Enter /home/share/software/programs/Gaussian/g16/l202.exe)
                          Input orientation:                          
 ---------------------------------------------------------------------
 Center     Atomic      Atomic             Coordinates (Angstroms)
 Number     Number       Type             X           Y           Z
 ---------------------------------------------------------------------
      1          6           0        0.000000    0.000000    0.000000
      2          6           0        0.000000    0.000000    1.526345
      3          7           0        1.228873    0.000000    2.083334
      4          1           0        2.051897    0.000000    1.499586
      5          1           0        1.299744    0.000000    3.084266
      6          8           0       -1.037562    0.000000    2.164103
      7          7           0        0.579675   -1.201428   -0.568010
      8          6           0        1.915452   -1.361296   -0.705513
      9          8           0        2.703889   -0.491309   -0.353641
     10          1           0       -0.033195   -1.936475   -0.867926
     11          6           0        2.376273   -2.659102   -1.310954
     12          1           0        3.036654   -2.434802   -2.144869
     13          1           0        1.554302   -3.283476   -1.653400
     14          1           0        2.951209   -3.201608   -0.563203
     15          1           0        0.565970    0.863022   -0.351252
     16          1           0       -1.027849    0.074643   -0.339713
 ---------------------------------------------------------------------
                    Distance matrix (angstroms):
                    1          2          3          4          5
     1  C    0.000000
     2  C    1.526345   0.000000
     3  N    2.418762   1.349209   0.000000
     4  H    2.541464   2.052072   1.009025   0.000000
     5  H    3.346943   2.028904   1.003437   1.754122   0.000000
     6  O    2.399974   1.217896   2.267873   3.160117   2.511911
     7  N    1.449858   2.483098   2.982367   2.808171   3.911655
     8  C    2.453535   3.240876   3.178394   2.595035   4.073653
     9  O    2.770823   3.329676   2.890658   2.025075   3.745959
    10  H    2.122341   3.079541   3.748691   3.701710   4.598530
    11  C    3.799487   4.557166   4.461899   3.882677   5.248590
    12  H    4.444096   5.350452   5.203271   4.492222   6.024032
    13  H    3.991341   4.827820   4.985007   4.579316   5.769877
    14  H    4.390573   4.829715   4.496765   3.913331   5.126564
    15  H    1.090186   2.142545   2.666731   2.525547   3.617459
    16  H    1.085104   2.131717   3.312027   3.587956   4.140880
                    6          7          8          9         10
     6  O    0.000000
     7  N    3.394602   0.000000
     8  C    4.336832   1.352319   0.000000
     9  O    4.536394   2.250002   1.225693   0.000000
    10  H    3.735222   1.002922   2.038243   3.137614   0.000000
    11  C    5.549875   2.429927   1.504399   2.392302   2.554212
    12  H    6.410517   3.169296   2.116897   2.663906   3.361976
    13  H    5.663241   2.542222   2.173406   3.287418   2.225203
    14  H    5.796446   3.102405   2.116552   2.729616   3.255777
    15  H    3.105339   2.075843   2.625679   2.530793   2.909146
    16  H    2.504947   2.065093   3.295262   3.774435   2.304982
                   11         12         13         14         15
    11  C    0.000000
    12  H    1.087119   0.000000
    13  H    1.087542   1.777401   0.000000
    14  H    1.088115   1.759818   1.773860   0.000000
    15  H    4.074749   4.494105   4.457110   4.717574   0.000000
    16  H    4.472663   5.106475   4.435114   5.159135   1.778183
                   16
    16  H    0.000000
 Stoichiometry    C4H8N2O2
 Framework group  C1[X(C4H8N2O2)]
 Deg. of freedom    42
 Full point group                 C1      NOp   1
 Largest Abelian subgroup         C1      NOp   1
 Largest concise Abelian subgroup C1      NOp   1
                         Standard orientation:                         
 ---------------------------------------------------------------------
 Center     Atomic      Atomic             Coordinates (Angstroms)
 Number     Number       Type             X           Y           Z
 ---------------------------------------------------------------------
      1          6           0        0.701219   -0.783335    0.755990
      2          6           0        1.725702   -0.000592   -0.061003
      3          7           0        1.388546    1.285127   -0.292560
      4          1           0        0.520546    1.655563    0.064487
      5          1           0        2.019367    1.856102   -0.824481
      6          8           0        2.754081   -0.517926   -0.458583
      7          7           0       -0.572151   -0.931257    0.078689
      8          6           0       -1.511384    0.041617    0.089899
      9          8           0       -1.328240    1.101504    0.677624
     10          1           0       -0.759472   -1.784736   -0.413587
     11          6           0       -2.785771   -0.248570   -0.655048
     12          1           0       -3.623642   -0.077479    0.016166
     13          1           0       -2.829370   -1.263780   -1.042597
     14          1           0       -2.867922    0.454505   -1.481446
     15          1           0        0.537913   -0.266976    1.702147
     16          1           0        1.102489   -1.773630    0.945059
 ---------------------------------------------------------------------
 Rotational constants (GHZ):           4.4565412           1.2288674           1.0964577
 Leave Link  202 at Fri Jan  8 19:29:14 2021, MaxMem=  8053063680 cpu:               1.2 elap:               0.1
 (Enter /home/share/software/programs/Gaussian/g16/l301.exe)
 General basis read from cards:  (5D, 7F)
 Centers:       4      5     10     12     13     14     15     16
 S 5 1.00
     Exponent=  3.3870000000D+01 Coefficients=  6.0680000000D-03
     Exponent=  5.0950000000D+00 Coefficients=  4.5308000000D-02
     Exponent=  1.1590000000D+00 Coefficients=  2.0282200000D-01
     Exponent=  3.2580000000D-01 Coefficients=  5.0390300000D-01
     Exponent=  1.0270000000D-01 Coefficients=  3.8342100000D-01
 S 1 1.00
     Exponent=  3.2580000000D-01 Coefficients=  1.0000000000D+00
 S 1 1.00
     Exponent=  1.0270000000D-01 Coefficients=  1.0000000000D+00
 P 1 1.00
     Exponent=  1.4070000000D+00 Coefficients=  1.0000000000D+00
 P 1 1.00
     Exponent=  3.8800000000D-01 Coefficients=  1.0000000000D+00
 D 1 1.00
     Exponent=  1.0570000000D+00 Coefficients=  1.0000000000D+00
 ****
 Centers:       1      2      8     11
 S 10 1.00
     Exponent=  8.2360000000D+03 Coefficients=  5.3100000000D-04
     Exponent=  1.2350000000D+03 Coefficients=  4.1080000000D-03
     Exponent=  2.8080000000D+02 Coefficients=  2.1087000000D-02
     Exponent=  7.9270000000D+01 Coefficients=  8.1853000000D-02
     Exponent=  2.5590000000D+01 Coefficients=  2.3481700000D-01
     Exponent=  8.9970000000D+00 Coefficients=  4.3440100000D-01
     Exponent=  3.3190000000D+00 Coefficients=  3.4612900000D-01
     Exponent=  9.0590000000D-01 Coefficients=  3.9378000000D-02
     Exponent=  3.6430000000D-01 Coefficients= -8.9830000000D-03
     Exponent=  1.2850000000D-01 Coefficients=  2.3850000000D-03
 S 10 1.00
     Exponent=  8.2360000000D+03 Coefficients= -1.1300000000D-04
     Exponent=  1.2350000000D+03 Coefficients= -8.7800000000D-04
     Exponent=  2.8080000000D+02 Coefficients= -4.5400000000D-03
     Exponent=  7.9270000000D+01 Coefficients= -1.8133000000D-02
     Exponent=  2.5590000000D+01 Coefficients= -5.5760000000D-02
     Exponent=  8.9970000000D+00 Coefficients= -1.2689500000D-01
     Exponent=  3.3190000000D+00 Coefficients= -1.7035200000D-01
     Exponent=  9.0590000000D-01 Coefficients=  1.4038200000D-01
     Exponent=  3.6430000000D-01 Coefficients=  5.9868400000D-01
     Exponent=  1.2850000000D-01 Coefficients=  3.9538900000D-01
 S 1 1.00
     Exponent=  8.8280000000D+00 Coefficients=  1.0000000000D+00
 S 1 1.00
     Exponent=  3.4740000000D+00 Coefficients=  1.0000000000D+00
 S 1 1.00
     Exponent=  9.0590000000D-01 Coefficients=  1.0000000000D+00
 S 1 1.00
     Exponent=  1.2850000000D-01 Coefficients=  1.0000000000D+00
 P 5 1.00
     Exponent=  1.8710000000D+01 Coefficients=  1.4031000000D-02
     Exponent=  4.1330000000D+00 Coefficients=  8.6866000000D-02
     Exponent=  1.2000000000D+00 Coefficients=  2.9021600000D-01
     Exponent=  3.8270000000D-01 Coefficients=  5.0100800000D-01
     Exponent=  1.2090000000D-01 Coefficients=  3.4340600000D-01
 P 1 1.00
     Exponent=  2.1552000000D+01 Coefficients=  1.0000000000D+00
 P 1 1.00
     Exponent=  5.4420000000D+00 Coefficients=  1.0000000000D+00
 P 1 1.00
     Exponent=  3.8270000000D-01 Coefficients=  1.0000000000D+00
 P 1 1.00
     Exponent=  1.2090000000D-01 Coefficients=  1.0000000000D+00
 D 1 1.00
     Exponent=  4.9500000000D+00 Coefficients=  1.0000000000D+00
 D 1 1.00
     Exponent=  1.0970000000D+00 Coefficients=  1.0000000000D+00
 D 1 1.00
     Exponent=  3.1800000000D-01 Coefficients=  1.0000000000D+00
 F 1 1.00
     Exponent=  7.6100000000D-01 Coefficients=  1.0000000000D+00
 ****
 Centers:       3      7
 S 10 1.00
     Exponent=  1.1420000000D+04 Coefficients=  5.2300000000D-04
     Exponent=  1.7120000000D+03 Coefficients=  4.0450000000D-03
     Exponent=  3.8930000000D+02 Coefficients=  2.0775000000D-02
     Exponent=  1.1000000000D+02 Coefficients=  8.0727000000D-02
     Exponent=  3.5570000000D+01 Coefficients=  2.3307400000D-01
     Exponent=  1.2540000000D+01 Coefficients=  4.3350100000D-01
     Exponent=  4.6440000000D+00 Coefficients=  3.4747200000D-01
     Exponent=  1.2930000000D+00 Coefficients=  4.1262000000D-02
     Exponent=  5.1180000000D-01 Coefficients= -8.5080000000D-03
     Exponent=  1.7870000000D-01 Coefficients=  2.3840000000D-03
 S 10 1.00
     Exponent=  1.1420000000D+04 Coefficients= -1.1500000000D-04
     Exponent=  1.7120000000D+03 Coefficients= -8.9500000000D-04
     Exponent=  3.8930000000D+02 Coefficients= -4.6240000000D-03
     Exponent=  1.1000000000D+02 Coefficients= -1.8528000000D-02
     Exponent=  3.5570000000D+01 Coefficients= -5.7339000000D-02
     Exponent=  1.2540000000D+01 Coefficients= -1.3207600000D-01
     Exponent=  4.6440000000D+00 Coefficients= -1.7251000000D-01
     Exponent=  1.2930000000D+00 Coefficients=  1.5181400000D-01
     Exponent=  5.1180000000D-01 Coefficients=  5.9994400000D-01
     Exponent=  1.7870000000D-01 Coefficients=  3.8746200000D-01
 S 1 1.00
     Exponent=  1.1807000000D+01 Coefficients=  1.0000000000D+00
 S 1 1.00
     Exponent=  4.7330000000D+00 Coefficients=  1.0000000000D+00
 S 1 1.00
     Exponent=  1.2930000000D+00 Coefficients=  1.0000000000D+00
 S 1 1.00
     Exponent=  1.7870000000D-01 Coefficients=  1.0000000000D+00
 P 5 1.00
     Exponent=  2.6630000000D+01 Coefficients=  1.4670000000D-02
     Exponent=  5.9480000000D+00 Coefficients=  9.1764000000D-02
     Exponent=  1.7420000000D+00 Coefficients=  2.9868300000D-01
     Exponent=  5.5500000000D-01 Coefficients=  4.9848700000D-01
     Exponent=  1.7250000000D-01 Coefficients=  3.3702300000D-01
 P 1 1.00
     Exponent=  2.9818000000D+01 Coefficients=  1.0000000000D+00
 P 1 1.00
     Exponent=  7.7430000000D+00 Coefficients=  1.0000000000D+00
 P 1 1.00
     Exponent=  5.5500000000D-01 Coefficients=  1.0000000000D+00
 P 1 1.00
     Exponent=  1.7250000000D-01 Coefficients=  1.0000000000D+00
 D 1 1.00
     Exponent=  7.3520000000D+00 Coefficients=  1.0000000000D+00
 D 1 1.00
     Exponent=  1.6540000000D+00 Coefficients=  1.0000000000D+00
 D 1 1.00
     Exponent=  4.6900000000D-01 Coefficients=  1.0000000000D+00
 F 1 1.00
     Exponent=  1.0930000000D+00 Coefficients=  1.0000000000D+00
 ****
 Centers:       6      9
 S 10 1.00
     Exponent=  1.5330000000D+04 Coefficients=  5.0800000000D-04
     Exponent=  2.2990000000D+03 Coefficients=  3.9290000000D-03
     Exponent=  5.2240000000D+02 Coefficients=  2.0243000000D-02
     Exponent=  1.4730000000D+02 Coefficients=  7.9181000000D-02
     Exponent=  4.7550000000D+01 Coefficients=  2.3068700000D-01
     Exponent=  1.6760000000D+01 Coefficients=  4.3311800000D-01
     Exponent=  6.2070000000D+00 Coefficients=  3.5026000000D-01
     Exponent=  1.7520000000D+00 Coefficients=  4.2728000000D-02
     Exponent=  6.8820000000D-01 Coefficients= -8.1540000000D-03
     Exponent=  2.3840000000D-01 Coefficients=  2.3810000000D-03
 S 10 1.00
     Exponent=  1.5330000000D+04 Coefficients= -1.1500000000D-04
     Exponent=  2.2990000000D+03 Coefficients= -8.9500000000D-04
     Exponent=  5.2240000000D+02 Coefficients= -4.6360000000D-03
     Exponent=  1.4730000000D+02 Coefficients= -1.8724000000D-02
     Exponent=  4.7550000000D+01 Coefficients= -5.8463000000D-02
     Exponent=  1.6760000000D+01 Coefficients= -1.3646300000D-01
     Exponent=  6.2070000000D+00 Coefficients= -1.7574000000D-01
     Exponent=  1.7520000000D+00 Coefficients=  1.6093400000D-01
     Exponent=  6.8820000000D-01 Coefficients=  6.0341800000D-01
     Exponent=  2.3840000000D-01 Coefficients=  3.7876500000D-01
 S 1 1.00
     Exponent=  1.5381000000D+01 Coefficients=  1.0000000000D+00
 S 1 1.00
     Exponent=  6.2450000000D+00 Coefficients=  1.0000000000D+00
 S 1 1.00
     Exponent=  1.7520000000D+00 Coefficients=  1.0000000000D+00
 S 1 1.00
     Exponent=  2.3840000000D-01 Coefficients=  1.0000000000D+00
 P 5 1.00
     Exponent=  3.4460000000D+01 Coefficients=  1.5928000000D-02
     Exponent=  7.7490000000D+00 Coefficients=  9.9740000000D-02
     Exponent=  2.2800000000D+00 Coefficients=  3.1049200000D-01
     Exponent=  7.1560000000D-01 Coefficients=  4.9102600000D-01
     Exponent=  2.1400000000D-01 Coefficients=  3.3633700000D-01
 P 1 1.00
     Exponent=  3.8484000000D+01 Coefficients=  1.0000000000D+00
 P 1 1.00
     Exponent=  1.0216000000D+01 Coefficients=  1.0000000000D+00
 P 1 1.00
     Exponent=  7.1560000000D-01 Coefficients=  1.0000000000D+00
 P 1 1.00
     Exponent=  2.1400000000D-01 Coefficients=  1.0000000000D+00
 D 1 1.00
     Exponent=  1.0238000000D+01 Coefficients=  1.0000000000D+00
 D 1 1.00
     Exponent=  2.3140000000D+00 Coefficients=  1.0000000000D+00
 D 1 1.00
     Exponent=  6.4500000000D-01 Coefficients=  1.0000000000D+00
 F 1 1.00
     Exponent=  1.4280000000D+00 Coefficients=  1.0000000000D+00
 ****
 Ernie: Thresh=  0.10000D-02 Tol=  0.10000D-05 Strict=F.
 Ernie:  56 primitive shells out of 376 were deleted.
 There are   512 symmetry adapted cartesian basis functions of A   symmetry.
 There are   456 symmetry adapted basis functions of A   symmetry.
   456 basis functions,   728 primitive gaussians,   512 cartesian basis functions
    31 alpha electrons       31 beta electrons
       nuclear repulsion energy       383.0793439011 Hartrees.
 IExCor=    0 DFT=F Ex=HF Corr=None ExCW=0 ScaHFX=  1.000000
 ScaDFX=  1.000000  1.000000  1.000000  1.000000 ScalE2=  1.000000  1.000000
 IRadAn=      5 IRanWt=     -1 IRanGd=            0 ICorTp=0 IEmpDi=  4
 NAtoms=   16 NActive=   16 NUniq=   16 SFac= 1.00D+00 NAtFMM=   60 NAOKFM=F Big=F
 Integral buffers will be    131072 words long.
 Raffenetti 1 integral format.
 Two-electron integral symmetry is turned on.
 Leave Link  301 at Fri Jan  8 19:29:14 2021, MaxMem=  8053063680 cpu:               7.3 elap:               0.2
 (Enter /home/share/software/programs/Gaussian/g16/l302.exe)
 NPDir=0 NMtPBC=     1 NCelOv=     1 NCel=       1 NClECP=     1 NCelD=      1
         NCelK=      1 NCelE2=     1 NClLst=     1 CellRange=     0.0.
 One-electron integrals computed using PRISM.
 One-electron integral symmetry used in STVInt
 NBasis=   456 RedAO= T EigKep=  3.47D-04  NBF=   456
 NBsUse=   456 1.00D-06 EigRej= -1.00D+00 NBFU=   456
 Leave Link  302 at Fri Jan  8 19:29:15 2021, MaxMem=  8053063680 cpu:              35.2 elap:               0.6
 (Enter /home/share/software/programs/Gaussian/g16/l303.exe)
 DipDrv:  MaxL=1.
 Leave Link  303 at Fri Jan  8 19:29:15 2021, MaxMem=  8053063680 cpu:               4.7 elap:               0.1
 (Enter /home/share/software/programs/Gaussian/g16/l401.exe)
 ExpMin= 1.03D-01 ExpMax= 1.53D+04 ExpMxC= 5.22D+02 IAcc=3 IRadAn=         5 AccDes= 0.00D+00
 Harris functional with IExCor=  205 and IRadAn=       5 diagonalized for initial guess.
 HarFok:  IExCor=  205 AccDes= 0.00D+00 IRadAn=         5 IDoV= 1 UseB2=F ITyADJ=14
 ICtDFT=  3500011 ScaDFX=  1.000000  1.000000  1.000000  1.000000
 FoFCou: FMM=F IPFlag=           0 FMFlag=      100000 FMFlg1=           0
         NFxFlg=           0 DoJE=T BraDBF=F KetDBF=T FulRan=T
         wScrn=  0.000000 ICntrl=       500 IOpCl=  0 I1Cent=   200000004 NGrid=           0
         NMat0=    1 NMatS0=      1 NMatT0=    0 NMatD0=    1 NMtDS0=    0 NMtDT0=    0
 Petite list used in FoFCou.
 Harris En= -415.445420029942    
 JPrj=0 DoOrth=F DoCkMO=F.
 Leave Link  401 at Fri Jan  8 19:29:16 2021, MaxMem=  8053063680 cpu:              47.9 elap:               0.8
 (Enter /home/share/software/programs/Gaussian/g16/l502.exe)
 Integral symmetry usage will be decided dynamically.
 Closed shell SCF:
 Using DIIS extrapolation, IDIIS=  1040.
 NGot=  8053063680 LenX=  8052501898 LenY=  8052239242
 Requested convergence on RMS density matrix=1.00D-08 within 128 cycles.
 Requested convergence on MAX density matrix=1.00D-06.
 Requested convergence on             energy=1.00D-06.
 No special actions if energy rises.
 Fock matrices will be formed incrementally for  20 cycles.
 Integral accuracy reduced to 1.0D-05 until final iterations.

 Cycle   1  Pass 0  IDiag  1:
 FoFJK:  IHMeth= 1 ICntrl=       0 DoSepK=F KAlg= 0 I1Cent=           0 FoldK=F
 IRaf= 900000000 NMat=       1 IRICut=       1 DoRegI=T DoRafI=F ISym2E= 0 IDoP0=0 IntGTp=1.
 FoFCou: FMM=F IPFlag=           0 FMFlag=      100000 FMFlg1=           0
         NFxFlg=           0 DoJE=F BraDBF=F KetDBF=F FulRan=T
         wScrn=  0.000000 ICntrl=         0 IOpCl=  0 I1Cent=           0 NGrid=           0
         NMat0=    1 NMatS0=      1 NMatT0=    0 NMatD0=    1 NMtDS0=    0 NMtDT0=    0
 Symmetry not used in FoFCou.
 E= -414.556706365202    
 DIIS: error= 3.25D-02 at cycle   1 NSaved=   1.
 NSaved= 1 IEnMin= 1 EnMin= -414.556706365202     IErMin= 1 ErrMin= 3.25D-02
 ErrMax= 3.25D-02  0.00D+00 EMaxC= 1.00D-01 BMatC= 1.02D+00 BMatP= 1.02D+00
 IDIUse=3 WtCom= 6.75D-01 WtEn= 3.25D-01
 Coeff-Com:  0.100D+01
 Coeff-En:   0.100D+01
 Coeff:      0.100D+01
 Gap=     0.562 Goal=   None    Shift=    0.000
 GapD=    0.562 DampG=2.000 DampE=0.500 DampFc=1.0000 IDamp=-1.
 RMSDP=3.52D-03 MaxDP=3.07D-01              OVMax= 1.26D-01

 Cycle   2  Pass 0  IDiag  1:
 RMSU=  2.85D-03    CP:  8.49D-01
 E= -414.881485449450     Delta-E=       -0.324779084248 Rises=F Damp=F
 DIIS: error= 1.29D-02 at cycle   2 NSaved=   2.
 NSaved= 2 IEnMin= 2 EnMin= -414.881485449450     IErMin= 2 ErrMin= 1.29D-02
 ErrMax= 1.29D-02  0.00D+00 EMaxC= 1.00D-01 BMatC= 1.10D-01 BMatP= 1.02D+00
 IDIUse=3 WtCom= 8.71D-01 WtEn= 1.29D-01
 Coeff-Com:  0.165D+00 0.835D+00
 Coeff-En:   0.000D+00 0.100D+01
 Coeff:      0.144D+00 0.856D+00
 Gap=     0.565 Goal=   None    Shift=    0.000
 RMSDP=1.29D-03 MaxDP=1.31D-01 DE=-3.25D-01 OVMax= 5.54D-02

 Cycle   3  Pass 0  IDiag  1:
 RMSU=  7.18D-04    CP:  8.74D-01  6.46D-01
 E= -414.941484642267     Delta-E=       -0.059999192817 Rises=F Damp=F
 DIIS: error= 6.77D-03 at cycle   3 NSaved=   3.
 NSaved= 3 IEnMin= 3 EnMin= -414.941484642267     IErMin= 3 ErrMin= 6.77D-03
 ErrMax= 6.77D-03  0.00D+00 EMaxC= 1.00D-01 BMatC= 1.91D-02 BMatP= 1.10D-01
 IDIUse=3 WtCom= 9.32D-01 WtEn= 6.77D-02
 Coeff-Com: -0.210D-01 0.266D+00 0.756D+00
 Coeff-En:   0.000D+00 0.000D+00 0.100D+01
 Coeff:     -0.196D-01 0.248D+00 0.772D+00
 Gap=     0.519 Goal=   None    Shift=    0.000
 RMSDP=3.55D-04 MaxDP=5.21D-02 DE=-6.00D-02 OVMax= 2.51D-02

 Cycle   4  Pass 0  IDiag  1:
 RMSU=  2.15D-04    CP:  8.68D-01  7.18D-01  7.56D-01
 E= -414.952765947451     Delta-E=       -0.011281305184 Rises=F Damp=F
 DIIS: error= 1.08D-03 at cycle   4 NSaved=   4.
 NSaved= 4 IEnMin= 4 EnMin= -414.952765947451     IErMin= 4 ErrMin= 1.08D-03
 ErrMax= 1.08D-03  0.00D+00 EMaxC= 1.00D-01 BMatC= 9.49D-04 BMatP= 1.91D-02
 IDIUse=3 WtCom= 9.89D-01 WtEn= 1.08D-02
 Coeff-Com: -0.114D-01 0.522D-01 0.256D+00 0.703D+00
 Coeff-En:   0.000D+00 0.000D+00 0.000D+00 0.100D+01
 Coeff:     -0.113D-01 0.517D-01 0.254D+00 0.706D+00
 Gap=     0.513 Goal=   None    Shift=    0.000
 RMSDP=9.32D-05 MaxDP=8.72D-03 DE=-1.13D-02 OVMax= 4.84D-03

 Cycle   5  Pass 0  IDiag  1:
 RMSU=  4.96D-05    CP:  8.66D-01  7.17D-01  8.54D-01  8.73D-01
 E= -414.953572086513     Delta-E=       -0.000806139061 Rises=F Damp=F
 DIIS: error= 4.18D-04 at cycle   5 NSaved=   5.
 NSaved= 5 IEnMin= 5 EnMin= -414.953572086513     IErMin= 5 ErrMin= 4.18D-04
 ErrMax= 4.18D-04  0.00D+00 EMaxC= 1.00D-01 BMatC= 3.96D-05 BMatP= 9.49D-04
 IDIUse=3 WtCom= 9.96D-01 WtEn= 4.18D-03
 Coeff-Com:  0.272D-02-0.247D-01-0.896D-01-0.608D-01 0.117D+01
 Coeff-En:   0.000D+00 0.000D+00 0.000D+00 0.000D+00 0.100D+01
 Coeff:      0.271D-02-0.246D-01-0.892D-01-0.605D-01 0.117D+01
 Gap=     0.513 Goal=   None    Shift=    0.000
 RMSDP=4.07D-05 MaxDP=3.09D-03 DE=-8.06D-04 OVMax= 4.40D-03

 Cycle   6  Pass 0  IDiag  1:
 RMSU=  1.70D-05    CP:  8.66D-01  7.14D-01  8.78D-01  1.00D+00  1.32D+00
 E= -414.953675515988     Delta-E=       -0.000103429476 Rises=F Damp=F
 DIIS: error= 9.28D-05 at cycle   6 NSaved=   6.
 NSaved= 6 IEnMin= 6 EnMin= -414.953675515988     IErMin= 6 ErrMin= 9.28D-05
 ErrMax= 9.28D-05  0.00D+00 EMaxC= 1.00D-01 BMatC= 6.81D-06 BMatP= 3.96D-05
 IDIUse=1 WtCom= 1.00D+00 WtEn= 0.00D+00
 Coeff-Com:  0.151D-02-0.948D-02-0.381D-01-0.899D-01 0.186D+00 0.950D+00
 Coeff:      0.151D-02-0.948D-02-0.381D-01-0.899D-01 0.186D+00 0.950D+00
 Gap=     0.514 Goal=   None    Shift=    0.000
 RMSDP=1.52D-05 MaxDP=9.07D-04 DE=-1.03D-04 OVMax= 1.51D-03

 Cycle   7  Pass 0  IDiag  1:
 RMSU=  6.59D-06    CP:  8.66D-01  7.13D-01  8.86D-01  1.03D+00  1.50D+00
                    CP:  1.12D+00
 E= -414.953689870522     Delta-E=       -0.000014354533 Rises=F Damp=F
 DIIS: error= 3.44D-05 at cycle   7 NSaved=   7.
 NSaved= 7 IEnMin= 7 EnMin= -414.953689870522     IErMin= 7 ErrMin= 3.44D-05
 ErrMax= 3.44D-05  0.00D+00 EMaxC= 1.00D-01 BMatC= 9.01D-07 BMatP= 6.81D-06
 IDIUse=1 WtCom= 1.00D+00 WtEn= 0.00D+00
 Coeff-Com: -0.345D-03 0.341D-02 0.142D-01 0.635D-03-0.152D+00-0.132D-01
 Coeff-Com:  0.115D+01
 Coeff:     -0.345D-03 0.341D-02 0.142D-01 0.635D-03-0.152D+00-0.132D-01
 Coeff:      0.115D+01
 Gap=     0.514 Goal=   None    Shift=    0.000
 RMSDP=6.51D-06 MaxDP=5.93D-04 DE=-1.44D-05 OVMax= 8.65D-04

 Initial convergence to 1.0D-05 achieved.  Increase integral accuracy.
 Cycle   8  Pass 1  IDiag  1:
 E= -414.953701665604     Delta-E=       -0.000011795082 Rises=F Damp=F
 DIIS: error= 3.75D-05 at cycle   1 NSaved=   1.
 NSaved= 1 IEnMin= 1 EnMin= -414.953701665604     IErMin= 1 ErrMin= 3.75D-05
 ErrMax= 3.75D-05  0.00D+00 EMaxC= 1.00D-01 BMatC= 3.21D-07 BMatP= 3.21D-07
 IDIUse=1 WtCom= 1.00D+00 WtEn= 0.00D+00
 Coeff-Com:  0.100D+01
 Coeff:      0.100D+01
 Gap=     0.514 Goal=   None    Shift=    0.000
 RMSDP=6.51D-06 MaxDP=5.93D-04 DE=-1.18D-05 OVMax= 1.49D-04

 Cycle   9  Pass 1  IDiag  1:
 RMSU=  9.11D-06    CP:  1.00D+00
 E= -414.953702031161     Delta-E=       -0.000000365557 Rises=F Damp=F
 DIIS: error= 1.16D-05 at cycle   2 NSaved=   2.
 NSaved= 2 IEnMin= 2 EnMin= -414.953702031161     IErMin= 2 ErrMin= 1.16D-05
 ErrMax= 1.16D-05  0.00D+00 EMaxC= 1.00D-01 BMatC= 3.05D-08 BMatP= 3.21D-07
 IDIUse=1 WtCom= 1.00D+00 WtEn= 0.00D+00
 Coeff-Com: -0.335D-01 0.103D+01
 Coeff:     -0.335D-01 0.103D+01
 Gap=     0.514 Goal=   None    Shift=    0.000
 RMSDP=1.00D-06 MaxDP=1.08D-04 DE=-3.66D-07 OVMax= 1.40D-04

 Cycle  10  Pass 1  IDiag  1:
 RMSU=  8.50D-07    CP:  1.00D+00  1.06D+00
 E= -414.953702116771     Delta-E=       -0.000000085611 Rises=F Damp=F
 DIIS: error= 4.94D-06 at cycle   3 NSaved=   3.
 NSaved= 3 IEnMin= 3 EnMin= -414.953702116771     IErMin= 3 ErrMin= 4.94D-06
 ErrMax= 4.94D-06  0.00D+00 EMaxC= 1.00D-01 BMatC= 1.57D-08 BMatP= 3.05D-08
 IDIUse=1 WtCom= 1.00D+00 WtEn= 0.00D+00
 Coeff-Com: -0.101D+00 0.267D+00 0.833D+00
 Coeff:     -0.101D+00 0.267D+00 0.833D+00
 Gap=     0.514 Goal=   None    Shift=    0.000
 RMSDP=5.50D-07 MaxDP=5.53D-05 DE=-8.56D-08 OVMax= 5.03D-05

 Cycle  11  Pass 1  IDiag  1:
 RMSU=  4.38D-07    CP:  1.00D+00  1.07D+00  1.34D+00
 E= -414.953702145854     Delta-E=       -0.000000029082 Rises=F Damp=F
 DIIS: error= 4.30D-06 at cycle   4 NSaved=   4.
 NSaved= 4 IEnMin= 4 EnMin= -414.953702145854     IErMin= 4 ErrMin= 4.30D-06
 ErrMax= 4.30D-06  0.00D+00 EMaxC= 1.00D-01 BMatC= 2.86D-09 BMatP= 1.57D-08
 IDIUse=1 WtCom= 1.00D+00 WtEn= 0.00D+00
 Coeff-Com:  0.775D-02-0.397D+00-0.986D-01 0.149D+01
 Coeff:      0.775D-02-0.397D+00-0.986D-01 0.149D+01
 Gap=     0.514 Goal=   None    Shift=    0.000
 RMSDP=5.71D-07 MaxDP=4.68D-05 DE=-2.91D-08 OVMax= 7.77D-05

 Cycle  12  Pass 1  IDiag  1:
 RMSU=  1.40D-07    CP:  1.00D+00  1.08D+00  1.90D+00  1.62D+00
 E= -414.953702158969     Delta-E=       -0.000000013115 Rises=F Damp=F
 DIIS: error= 5.38D-07 at cycle   5 NSaved=   5.
 NSaved= 5 IEnMin= 5 EnMin= -414.953702158969     IErMin= 5 ErrMin= 5.38D-07
 ErrMax= 5.38D-07  0.00D+00 EMaxC= 1.00D-01 BMatC= 1.61D-10 BMatP= 2.86D-09
 IDIUse=1 WtCom= 1.00D+00 WtEn= 0.00D+00
 Coeff-Com:  0.651D-02-0.133D+00-0.761D-01 0.461D+00 0.741D+00
 Coeff:      0.651D-02-0.133D+00-0.761D-01 0.461D+00 0.741D+00
 Gap=     0.514 Goal=   None    Shift=    0.000
 RMSDP=6.49D-08 MaxDP=4.99D-06 DE=-1.31D-08 OVMax= 5.79D-06

 Cycle  13  Pass 1  IDiag  1:
 RMSU=  3.60D-08    CP:  1.00D+00  1.08D+00  1.95D+00  1.70D+00  1.09D+00
 E= -414.953702159200     Delta-E=       -0.000000000232 Rises=F Damp=F
 DIIS: error= 1.76D-07 at cycle   6 NSaved=   6.
 NSaved= 6 IEnMin= 6 EnMin= -414.953702159200     IErMin= 6 ErrMin= 1.76D-07
 ErrMax= 1.76D-07  0.00D+00 EMaxC= 1.00D-01 BMatC= 9.12D-12 BMatP= 1.61D-10
 IDIUse=1 WtCom= 1.00D+00 WtEn= 0.00D+00
 Coeff-Com: -0.156D-02 0.594D-01 0.188D-01-0.215D+00-0.933D-01 0.123D+01
 Coeff:     -0.156D-02 0.594D-01 0.188D-01-0.215D+00-0.933D-01 0.123D+01
 Gap=     0.514 Goal=   None    Shift=    0.000
 RMSDP=2.61D-08 MaxDP=1.62D-06 DE=-2.32D-10 OVMax= 1.74D-06

 Cycle  14  Pass 1  IDiag  1:
 RMSU=  1.22D-08    CP:  1.00D+00  1.08D+00  1.95D+00  1.73D+00  1.21D+00
                    CP:  1.24D+00
 E= -414.953702159214     Delta-E=       -0.000000000014 Rises=F Damp=F
 DIIS: error= 3.22D-08 at cycle   7 NSaved=   7.
 NSaved= 7 IEnMin= 7 EnMin= -414.953702159214     IErMin= 7 ErrMin= 3.22D-08
 ErrMax= 3.22D-08  0.00D+00 EMaxC= 1.00D-01 BMatC= 8.44D-13 BMatP= 9.12D-12
 IDIUse=1 WtCom= 1.00D+00 WtEn= 0.00D+00
 Coeff-Com: -0.737D-03 0.191D-01 0.933D-02-0.687D-01-0.787D-01 0.202D+00
 Coeff-Com:  0.918D+00
 Coeff:     -0.737D-03 0.191D-01 0.933D-02-0.687D-01-0.787D-01 0.202D+00
 Coeff:      0.918D+00
 Gap=     0.514 Goal=   None    Shift=    0.000
 RMSDP=6.00D-09 MaxDP=3.63D-07 DE=-1.41D-11 OVMax= 4.11D-07

 SCF Done:  E(RHF) =  -414.953702159     A.U. after   14 cycles
            NFock= 14  Conv=0.60D-08     -V/T= 2.0009
 KE= 4.145719305033D+02 PE=-1.740969753386D+03 EE= 5.283647768221D+02
 Leave Link  502 at Fri Jan  8 19:29:42 2021, MaxMem=  8053063680 cpu:            1628.9 elap:              25.5
 (Enter /home/share/software/programs/Gaussian/g16/l801.exe)
 Range of M.O.s used for correlation:     1   456
 NBasis=   456 NAE=    31 NBE=    31 NFC=     0 NFV=     0
 NROrb=    456 NOA=    31 NOB=    31 NVA=   425 NVB=   425

 **** Warning!!: The largest alpha MO coefficient is  0.10559029D+02

 Leave Link  801 at Fri Jan  8 19:29:43 2021, MaxMem=  8053063680 cpu:               4.3 elap:               0.2
 (Enter /home/share/software/programs/Gaussian/g16/l906.exe)
 FulOut=F Deriv=F AODrv=F NAtomX=    16
   MMem=          18  MDisk=          31 MDiskD=          31
  W3Min=     6745600 MinDsk=     7877855 NBas6D=         512
 NBas2D=      132336    NTT=      131328    LW2=     2000000
    MDV=  8051895451 MDiskM=       78612 NBas2p=      115596
 Disk-based method using OVN memory for 31 occupieds at a time.
 Estimated scratch disk usage=  4856138260 words.
 IMap=   1   2   3   4   5   6   7   8   9  10  11  12  13  14  15  16  17  18  19  20
 IMap=  21  22  23  24  25  26  27  28  29  30  31
 Actual    scratch disk usage=  3807824404 words.
 JobTyp=1 Pass  1:  I=   1 to  31 NPSUse= 64 ParTrn=T ParDer=T DoDerP=F.
 (rs|ai) integrals will be sorted in core.
 Spin components of T(2) and E(2):
     alpha-alpha T2 =       0.5747219999D-01 E2=     -0.2181434209D+00
     alpha-beta  T2 =       0.3202485018D+00 E2=     -0.1506722813D+01
     beta-beta   T2 =       0.5747219999D-01 E2=     -0.2181434209D+00
 The integrals were generated   1 times.
 ANorm=    0.1197995368D+01
 E2 =    -0.1943009655D+01 EUMP2 =    -0.41689671181421D+03
 Leave Link  906 at Fri Jan  8 19:32:00 2021, MaxMem=  8053063680 cpu:            8759.0 elap:             137.0
 (Enter /home/share/software/programs/Gaussian/g16/l601.exe)
 Copying SCF densities to generalized density rwf, IOpCl= 0 IROHF=0.

 **********************************************************************

            Population analysis using the SCF Density.

 **********************************************************************

 Orbital symmetries:
       Occupied  (A) (A) (A) (A) (A) (A) (A) (A) (A) (A) (A) (A)
                 (A) (A) (A) (A) (A) (A) (A) (A) (A) (A) (A) (A)
                 (A) (A) (A) (A) (A) (A) (A)
       Virtual   (A) (A) (A) (A) (A) (A) (A) (A) (A) (A) (A) (A)
                 (A) (A) (A) (A) (A) (A) (A) (A) (A) (A) (A) (A)
                 (A) (A) (A) (A) (A) (A) (A) (A) (A) (A) (A) (A)
                 (A) (A) (A) (A) (A) (A) (A) (A) (A) (A) (A) (A)
                 (A) (A) (A) (A) (A) (A) (A) (A) (A) (A) (A) (A)
                 (A) (A) (A) (A) (A) (A) (A) (A) (A) (A) (A) (A)
                 (A) (A) (A) (A) (A) (A) (A) (A) (A) (A) (A) (A)
                 (A) (A) (A) (A) (A) (A) (A) (A) (A) (A) (A) (A)
                 (A) (A) (A) (A) (A) (A) (A) (A) (A) (A) (A) (A)
                 (A) (A) (A) (A) (A) (A) (A) (A) (A) (A) (A) (A)
                 (A) (A) (A) (A) (A) (A) (A) (A) (A) (A) (A) (A)
                 (A) (A) (A) (A) (A) (A) (A) (A) (A) (A) (A) (A)
                 (A) (A) (A) (A) (A) (A) (A) (A) (A) (A) (A) (A)
                 (A) (A) (A) (A) (A) (A) (A) (A) (A) (A) (A) (A)
                 (A) (A) (A) (A) (A) (A) (A) (A) (A) (A) (A) (A)
                 (A) (A) (A) (A) (A) (A) (A) (A) (A) (A) (A) (A)
                 (A) (A) (A) (A) (A) (A) (A) (A) (A) (A) (A) (A)
                 (A) (A) (A) (A) (A) (A) (A) (A) (A) (A) (A) (A)
                 (A) (A) (A) (A) (A) (A) (A) (A) (A) (A) (A) (A)
                 (A) (A) (A) (A) (A) (A) (A) (A) (A) (A) (A) (A)
                 (A) (A) (A) (A) (A) (A) (A) (A) (A) (A) (A) (A)
                 (A) (A) (A) (A) (A) (A) (A) (A) (A) (A) (A) (A)
                 (A) (A) (A) (A) (A) (A) (A) (A) (A) (A) (A) (A)
                 (A) (A) (A) (A) (A) (A) (A) (A) (A) (A) (A) (A)
                 (A) (A) (A) (A) (A) (A) (A) (A) (A) (A) (A) (A)
                 (A) (A) (A) (A) (A) (A) (A) (A) (A) (A) (A) (A)
                 (A) (A) (A) (A) (A) (A) (A) (A) (A) (A) (A) (A)
                 (A) (A) (A) (A) (A) (A) (A) (A) (A) (A) (A) (A)
                 (A) (A) (A) (A) (A) (A) (A) (A) (A) (A) (A) (A)
                 (A) (A) (A) (A) (A) (A) (A) (A) (A) (A) (A) (A)
                 (A) (A) (A) (A) (A) (A) (A) (A) (A) (A) (A) (A)
                 (A) (A) (A) (A) (A) (A) (A) (A) (A) (A) (A) (A)
                 (A) (A) (A) (A) (A) (A) (A) (A) (A) (A) (A) (A)
                 (A) (A) (A) (A) (A) (A) (A) (A) (A) (A) (A) (A)
                 (A) (A) (A) (A) (A) (A) (A) (A) (A) (A) (A) (A)
                 (A) (A) (A) (A) (A)
 The electronic state is 1-A.
 Alpha  occ. eigenvalues --  -20.52956 -20.51055 -15.60539 -15.56636 -11.36686
 Alpha  occ. eigenvalues --  -11.34289 -11.28116 -11.24994  -1.40053  -1.37488
 Alpha  occ. eigenvalues --   -1.25424  -1.20279  -1.04213  -0.97264  -0.82563
 Alpha  occ. eigenvalues --   -0.78691  -0.73034  -0.71787  -0.67752  -0.66165
 Alpha  occ. eigenvalues --   -0.62596  -0.60116  -0.59517  -0.58359  -0.56353
 Alpha  occ. eigenvalues --   -0.53821  -0.53484  -0.44973  -0.44021  -0.40457
 Alpha  occ. eigenvalues --   -0.39734
 Alpha virt. eigenvalues --    0.11644   0.15434   0.15548   0.16645   0.18547
 Alpha virt. eigenvalues --    0.19522   0.20555   0.22712   0.23054   0.25918
 Alpha virt. eigenvalues --    0.28525   0.30507   0.31518   0.35219   0.36145
 Alpha virt. eigenvalues --    0.37610   0.39718   0.42421   0.44480   0.45672
 Alpha virt. eigenvalues --    0.48208   0.49888   0.50562   0.52724   0.53567
 Alpha virt. eigenvalues --    0.55743   0.57337   0.58806   0.59784   0.60089
 Alpha virt. eigenvalues --    0.60845   0.61325   0.62871   0.63576   0.65551
 Alpha virt. eigenvalues --    0.66506   0.67409   0.68589   0.69982   0.71376
 Alpha virt. eigenvalues --    0.73806   0.75101   0.76777   0.78597   0.80035
 Alpha virt. eigenvalues --    0.81774   0.84179   0.84587   0.88088   0.88900
 Alpha virt. eigenvalues --    0.90668   0.94617   0.95132   0.97114   0.98023
 Alpha virt. eigenvalues --    0.99955   1.01638   1.04058   1.05554   1.06416
 Alpha virt. eigenvalues --    1.07198   1.10203   1.11605   1.12874   1.14375
 Alpha virt. eigenvalues --    1.16493   1.17260   1.18099   1.20777   1.21325
 Alpha virt. eigenvalues --    1.23112   1.25004   1.25431   1.29291   1.31076
 Alpha virt. eigenvalues --    1.31356   1.35383   1.36578   1.38227   1.39467
 Alpha virt. eigenvalues --    1.42166   1.45744   1.46492   1.47135   1.49655
 Alpha virt. eigenvalues --    1.50596   1.51190   1.52746   1.54111   1.55497
 Alpha virt. eigenvalues --    1.56222   1.57450   1.57722   1.58427   1.60322
 Alpha virt. eigenvalues --    1.62454   1.65230   1.66583   1.74973   1.75733
 Alpha virt. eigenvalues --    1.76904   1.82841   1.83035   1.85975   1.90951
 Alpha virt. eigenvalues --    1.94374   1.96063   1.99255   2.02374   2.04018
 Alpha virt. eigenvalues --    2.10990   2.13605   2.20531   2.23577   2.27465
 Alpha virt. eigenvalues --    2.32171   2.34283   2.35475   2.37297   2.37891
 Alpha virt. eigenvalues --    2.40677   2.43862   2.49714   2.55614   2.55958
 Alpha virt. eigenvalues --    2.59577   2.61083   2.66533   2.67619   2.70898
 Alpha virt. eigenvalues --    2.74617   2.77109   2.77952   2.80298   2.83913
 Alpha virt. eigenvalues --    2.86134   2.89429   2.91350   2.94786   2.97917
 Alpha virt. eigenvalues --    3.02769   3.04904   3.06326   3.06732   3.07928
 Alpha virt. eigenvalues --    3.08889   3.10861   3.13121   3.13864   3.18351
 Alpha virt. eigenvalues --    3.18938   3.20840   3.21770   3.24324   3.24621
 Alpha virt. eigenvalues --    3.26755   3.28452   3.29884   3.31122   3.33084
 Alpha virt. eigenvalues --    3.35130   3.36313   3.37723   3.40317   3.41028
 Alpha virt. eigenvalues --    3.41925   3.45985   3.48451   3.48955   3.50050
 Alpha virt. eigenvalues --    3.51479   3.53022   3.53545   3.55120   3.56775
 Alpha virt. eigenvalues --    3.57616   3.60215   3.60931   3.63769   3.65083
 Alpha virt. eigenvalues --    3.68721   3.70345   3.70919   3.71863   3.73291
 Alpha virt. eigenvalues --    3.74505   3.76339   3.79830   3.80680   3.82389
 Alpha virt. eigenvalues --    3.86746   3.88558   3.89873   3.92336   3.93821
 Alpha virt. eigenvalues --    3.95619   3.96784   3.98238   4.00859   4.02758
 Alpha virt. eigenvalues --    4.05139   4.06439   4.09088   4.10159   4.11496
 Alpha virt. eigenvalues --    4.14855   4.15577   4.16540   4.17870   4.18884
 Alpha virt. eigenvalues --    4.20531   4.22246   4.24972   4.25774   4.27178
 Alpha virt. eigenvalues --    4.31811   4.33178   4.35518   4.36172   4.37944
 Alpha virt. eigenvalues --    4.38990   4.39348   4.44015   4.45088   4.45405
 Alpha virt. eigenvalues --    4.47815   4.52443   4.53778   4.54669   4.55544
 Alpha virt. eigenvalues --    4.58349   4.60300   4.61401   4.64989   4.66410
 Alpha virt. eigenvalues --    4.67826   4.72659   4.77892   4.83951   4.86731
 Alpha virt. eigenvalues --    4.91569   4.98451   5.00445   5.03027   5.04291
 Alpha virt. eigenvalues --    5.05633   5.10577   5.11053   5.12464   5.13236
 Alpha virt. eigenvalues --    5.15440   5.16337   5.20221   5.21449   5.25863
 Alpha virt. eigenvalues --    5.28384   5.31501   5.32703   5.33959   5.36984
 Alpha virt. eigenvalues --    5.40524   5.44172   5.46408   5.47743   5.50492
 Alpha virt. eigenvalues --    5.52796   5.55863   5.58903   5.60211   5.62994
 Alpha virt. eigenvalues --    5.64675   5.65301   5.67803   5.70015   5.73368
 Alpha virt. eigenvalues --    5.75446   5.78235   5.84302   5.86307   5.89333
 Alpha virt. eigenvalues --    5.99306   6.00464   6.04817   6.06658   6.07912
 Alpha virt. eigenvalues --    6.10836   6.13561   6.14210   6.14988   6.17887
 Alpha virt. eigenvalues --    6.18884   6.20325   6.22160   6.27870   6.28753
 Alpha virt. eigenvalues --    6.33460   6.36749   6.48997   6.58203   6.64475
 Alpha virt. eigenvalues --    6.68187   6.73300   6.74483   6.79497   6.94681
 Alpha virt. eigenvalues --    7.02316   7.08045   7.08353   7.18546   7.21785
 Alpha virt. eigenvalues --    7.28051   7.34359   7.36865   7.37969   7.40983
 Alpha virt. eigenvalues --    7.48022   7.54431   7.68390   7.68897   7.77156
 Alpha virt. eigenvalues --    7.85634  10.49872  10.51083  11.31556  11.40844
 Alpha virt. eigenvalues --   11.43124  11.49758  11.52884  11.57952  11.65984
 Alpha virt. eigenvalues --   11.69549  11.86561  11.91339  13.25816  13.32628
 Alpha virt. eigenvalues --   13.52158  13.58203  14.77463  14.81337  14.86531
 Alpha virt. eigenvalues --   14.88936  14.91285  14.91652  14.99135  15.02996
 Alpha virt. eigenvalues --   15.05553  15.10438  15.12435  15.13228  15.34948
 Alpha virt. eigenvalues --   15.48345  15.53362  15.67227  15.69920  15.70679
 Alpha virt. eigenvalues --   15.73158  15.91383  15.94138  16.00821  16.01821
 Alpha virt. eigenvalues --   16.10699  16.22046  16.57874  18.02901  18.20615
 Alpha virt. eigenvalues --   19.18813  19.20357  19.43047  19.44583  20.23971
 Alpha virt. eigenvalues --   20.29025  21.87396  21.90053  21.91167  21.91609
 Alpha virt. eigenvalues --   22.14496  22.29956  22.32880  22.49893  22.66103
 Alpha virt. eigenvalues --   22.67588  23.19405  23.23774  30.11925  30.14482
 Alpha virt. eigenvalues --   30.15181  30.17297  30.25181  30.26615  30.37944
 Alpha virt. eigenvalues --   30.38567  30.51906  30.54290  50.38606  50.39752
 Alpha virt. eigenvalues --   51.01018  51.01553  51.07456  51.14058  51.15187
 Alpha virt. eigenvalues --   51.19469  51.23257  51.26443  51.29525  51.31863
 Alpha virt. eigenvalues --   62.82542  62.91311  63.34347  63.44772  70.17703
 Alpha virt. eigenvalues --   70.23399  70.82641  70.88473  71.06861  71.19267
 Alpha virt. eigenvalues --   83.89427  84.05970  90.54886  90.56314  90.72455
 Alpha virt. eigenvalues --   90.73645  91.44407  91.46290 108.30652 108.37788
          Condensed to atoms (all electrons):
               1          2          3          4          5          6
     1  C    4.890004   0.345153  -0.135760  -0.000553   0.012464  -0.089601
     2  C    0.345153   4.243104   0.390985  -0.008961  -0.017552   0.771741
     3  N   -0.135760   0.390985   6.440835   0.377127   0.358904  -0.128384
     4  H   -0.000553  -0.008961   0.377127   0.443129  -0.026280   0.003133
     5  H    0.012464  -0.017552   0.358904  -0.026280   0.508862   0.009378
     6  O   -0.089601   0.771741  -0.128384   0.003133   0.009378   7.900797
     7  N    0.260311  -0.035464   0.006988  -0.003187  -0.001321   0.003113
     8  C   -0.051633  -0.000619   0.010487  -0.003063  -0.000327  -0.000435
     9  O    0.015974  -0.009929  -0.016086   0.022979   0.000750   0.000026
    10  H   -0.030225   0.001577  -0.000282  -0.000188   0.000023   0.000376
    11  C    0.006385  -0.001087  -0.000020   0.000627  -0.000041   0.000008
    12  H   -0.000543  -0.000037   0.000011  -0.000036  -0.000004   0.000000
    13  H   -0.000009   0.000120   0.000034  -0.000070  -0.000001  -0.000003
    14  H   -0.000284   0.000260   0.000193  -0.000054   0.000028  -0.000003
    15  H    0.387631  -0.052483   0.011070  -0.001368  -0.001079   0.003540
    16  H    0.413402  -0.051400   0.007330  -0.000253  -0.000547   0.011251
               7          8          9         10         11         12
     1  C    0.260311  -0.051633   0.015974  -0.030225   0.006385  -0.000543
     2  C   -0.035464  -0.000619  -0.009929   0.001577  -0.001087  -0.000037
     3  N    0.006988   0.010487  -0.016086  -0.000282  -0.000020   0.000011
     4  H   -0.003187  -0.003063   0.022979  -0.000188   0.000627  -0.000036
     5  H   -0.001321  -0.000327   0.000750   0.000023  -0.000041  -0.000004
     6  O    0.003113  -0.000435   0.000026   0.000376   0.000008   0.000000
     7  N    6.472994   0.398900  -0.116717   0.387266  -0.053870   0.000692
     8  C    0.398900   4.308688   0.647997  -0.019035   0.374268  -0.029060
     9  O   -0.116717   0.647997   8.037599   0.004621  -0.055350   0.002795
    10  H    0.387266  -0.019035   0.004621   0.516241  -0.004573   0.000335
    11  C   -0.053870   0.374268  -0.055350  -0.004573   4.636132   0.413441
    12  H    0.000692  -0.029060   0.002795   0.000335   0.413441   0.563638
    13  H    0.007839  -0.057956   0.003748  -0.002447   0.429990  -0.023390
    14  H   -0.000228  -0.023316   0.002418   0.000055   0.401177  -0.016679
    15  H   -0.035843  -0.010472   0.009242   0.005108   0.000317   0.000174
    16  H   -0.020719   0.005023   0.000788  -0.006480   0.000044   0.000038
              13         14         15         16
     1  C   -0.000009  -0.000284   0.387631   0.413402
     2  C    0.000120   0.000260  -0.052483  -0.051400
     3  N    0.000034   0.000193   0.011070   0.007330
     4  H   -0.000070  -0.000054  -0.001368  -0.000253
     5  H   -0.000001   0.000028  -0.001079  -0.000547
     6  O   -0.000003  -0.000003   0.003540   0.011251
     7  N    0.007839  -0.000228  -0.035843  -0.020719
     8  C   -0.057956  -0.023316  -0.010472   0.005023
     9  O    0.003748   0.002418   0.009242   0.000788
    10  H   -0.002447   0.000055   0.005108  -0.006480
    11  C    0.429990   0.401177   0.000317   0.000044
    12  H   -0.023390  -0.016679   0.000174   0.000038
    13  H    0.612805  -0.020391  -0.000187  -0.000083
    14  H   -0.020391   0.574505  -0.000172  -0.000023
    15  H   -0.000187  -0.000172   0.597363  -0.005075
    16  H   -0.000083  -0.000023  -0.005075   0.536468
 Mulliken charges:
               1
     1  C   -0.022715
     2  C    0.424592
     3  N   -0.323432
     4  H    0.197019
     5  H    0.156744
     6  O   -0.484937
     7  N   -0.270755
     8  C    0.450553
     9  O   -0.550855
    10  H    0.147629
    11  C   -0.147449
    12  H    0.088623
    13  H    0.050001
    14  H    0.082513
    15  H    0.092232
    16  H    0.110237
 Sum of Mulliken charges =  -0.00000
 Mulliken charges with hydrogens summed into heavy atoms:
               1
     1  C    0.179753
     2  C    0.424592
     3  N    0.030331
     6  O   -0.484937
     7  N   -0.123127
     8  C    0.450553
     9  O   -0.550855
    11  C    0.073688
 Electronic spatial extent (au):  <R**2>=           1092.6909
 Charge=             -0.0000 electrons
 Dipole moment (field-independent basis, Debye):
    X=             -3.8079    Y=             -1.3799    Z=             -0.7565  Tot=              4.1203
 Quadrupole moment (field-independent basis, Debye-Ang):
   XX=            -55.7691   YY=            -43.8347   ZZ=            -47.2754
   XY=              9.4278   XZ=              5.8773   YZ=             -3.4969
 Traceless Quadrupole moment (field-independent basis, Debye-Ang):
   XX=             -6.8093   YY=              5.1250   ZZ=              1.6843
   XY=              9.4278   XZ=              5.8773   YZ=             -3.4969
 Octapole moment (field-independent basis, Debye-Ang**2):
  XXX=            -52.3235  YYY=             -1.1725  ZZZ=              0.2798  XYY=              8.2537
  XXY=             10.5517  XXZ=              0.8191  XZZ=              1.8691  YZZ=              0.3938
  YYZ=             -7.4004  XYZ=             -4.0997
 Hexadecapole moment (field-independent basis, Debye-Ang**3):
 XXXX=          -1074.1639 YYYY=           -216.8876 ZZZZ=           -131.7100 XXXY=             46.8534
 XXXZ=             17.1341 YYYX=             21.9798 YYYZ=             -5.1619 ZZZX=             -1.5309
 ZZZY=             -1.7895 XXYY=           -206.3041 XXZZ=           -186.8164 YYZZ=            -61.7553
 XXYZ=            -18.1034 YYXZ=             -0.3727 ZZXY=              3.4555
 N-N= 3.830793439011D+02 E-N=-1.740969759154D+03  KE= 4.145719305033D+02
 Leave Link  601 at Fri Jan  8 19:33:06 2021, MaxMem=  8053063680 cpu:              49.4 elap:               1.8
 (Enter /home/share/software/programs/Gaussian/g16/l9999.exe)
 Unable to Open any file for archive entry.
 1\1\GINC-CU39\SP\RMP2-Full\Gen\C4H8N2O2\ROOT\08-Jan-2021\0\\#p mp2=ful
 l/gen\\opt\\0,1\C,0,0.,0.,0.\C,0,0.,0.,1.5263449\N,0,1.22887295,0.,2.0
 8333389\H,0,2.05189728,0.,1.499586\H,0,1.29974412,0.,3.0842655\O,0,-1.
 03756181,0.,2.16410265\N,0,0.57967471,-1.20142843,-0.5680101\C,0,1.915
 45247,-1.361296,-0.70551314\O,0,2.70388858,-0.49130926,-0.35364079\H,0
 ,-0.03319475,-1.93647512,-0.86792596\C,0,2.37627299,-2.65910243,-1.310
 9538\H,0,3.03665376,-2.43480201,-2.14486896\H,0,1.55430241,-3.28347578
 ,-1.65339974\H,0,2.9512091,-3.20160838,-0.56320325\H,0,0.56597042,0.86
 302157,-0.35125184\H,0,-1.02784913,0.07464266,-0.33971295\\Version=ES6
 4L-G16RevC.01\State=1-A\HF=-414.9537022\MP2=-416.8967118\RMSD=5.997e-0
 9\PG=C01 [X(C4H8N2O2)]\\@
 The archive entry for this job was punched.


 SACRED COWS MAKE GREAT HAMBURGERS -- ROBERT REISNER
 Job cpu time:       0 days  2 hours 56 minutes 16.3 seconds.
 Elapsed time:       0 days  0 hours  2 minutes 47.5 seconds.
 File lengths (MBytes):  RWF=  29180 Int=      0 D2E=      0 Chk=     15 Scr=      2
 Normal termination of Gaussian 16 at Fri Jan  8 19:33:09 2021.
