 Entering Gaussian System, Link 0=g16
 Input=ccc_Best_geom_CCSDT_aug_cc-pVTZ.gjf
 Output=ccc_Best_geom_CCSDT_aug_cc-pVTZ.log
 Initial command:
 /home/share/software/programs/Gaussian/g16/l1.exe "/home/qr/scratch/Gau-156114.inp" -scrdir="/home/qr/scratch/"
 Entering Link 1 = /home/share/software/programs/Gaussian/g16/l1.exe PID=    156115.
  
 Copyright (c) 1988-2019, Gaussian, Inc.  All Rights Reserved.
  
 This is part of the Gaussian(R) 16 program.  It is based on
 the Gaussian(R) 09 system (copyright 2009, Gaussian, Inc.),
 the Gaussian(R) 03 system (copyright 2003, Gaussian, Inc.),
 the Gaussian(R) 98 system (copyright 1998, Gaussian, Inc.),
 the Gaussian(R) 94 system (copyright 1995, Gaussian, Inc.),
 the Gaussian 92(TM) system (copyright 1992, Gaussian, Inc.),
 the Gaussian 90(TM) system (copyright 1990, Gaussian, Inc.),
 the Gaussian 88(TM) system (copyright 1988, Gaussian, Inc.),
 the Gaussian 86(TM) system (copyright 1986, Carnegie Mellon
 University), and the Gaussian 82(TM) system (copyright 1983,
 Carnegie Mellon University). Gaussian is a federally registered
 trademark of Gaussian, Inc.
  
 This software contains proprietary and confidential information,
 including trade secrets, belonging to Gaussian, Inc.
  
 This software is provided under written license and may be
 used, copied, transmitted, or stored only in accord with that
 written license.
  
 The following legend is applicable only to US Government
 contracts under FAR:
  
                    RESTRICTED RIGHTS LEGEND
  
 Use, reproduction and disclosure by the US Government is
 subject to restrictions as set forth in subparagraphs (a)
 and (c) of the Commercial Computer Software - Restricted
 Rights clause in FAR 52.227-19.
  
 Gaussian, Inc.
 340 Quinnipiac St., Bldg. 40, Wallingford CT 06492
  
  
 ---------------------------------------------------------------
 Warning -- This program may not be used in any manner that
 competes with the business of Gaussian, Inc. or will provide
 assistance to any competitor of Gaussian, Inc.  The licensee
 of this program is prohibited from giving any competitor of
 Gaussian, Inc. access to this program.  By using this program,
 the user acknowledges that Gaussian, Inc. is engaged in the
 business of creating and licensing software in the field of
 computational chemistry and represents and warrants to the
 licensee that it is not a competitor of Gaussian, Inc. and that
 it will not use this program in any manner prohibited above.
 ---------------------------------------------------------------
  

 Cite this work as:
 Gaussian 16, Revision C.01,
 M. J. Frisch, G. W. Trucks, H. B. Schlegel, G. E. Scuseria, 
 M. A. Robb, J. R. Cheeseman, G. Scalmani, V. Barone, 
 G. A. Petersson, H. Nakatsuji, X. Li, M. Caricato, A. V. Marenich, 
 J. Bloino, B. G. Janesko, R. Gomperts, B. Mennucci, H. P. Hratchian, 
 J. V. Ortiz, A. F. Izmaylov, J. L. Sonnenberg, D. Williams-Young, 
 F. Ding, F. Lipparini, F. Egidi, J. Goings, B. Peng, A. Petrone, 
 T. Henderson, D. Ranasinghe, V. G. Zakrzewski, J. Gao, N. Rega, 
 G. Zheng, W. Liang, M. Hada, M. Ehara, K. Toyota, R. Fukuda, 
 J. Hasegawa, M. Ishida, T. Nakajima, Y. Honda, O. Kitao, H. Nakai, 
 T. Vreven, K. Throssell, J. A. Montgomery, Jr., J. E. Peralta, 
 F. Ogliaro, M. J. Bearpark, J. J. Heyd, E. N. Brothers, K. N. Kudin, 
 V. N. Staroverov, T. A. Keith, R. Kobayashi, J. Normand, 
 K. Raghavachari, A. P. Rendell, J. C. Burant, S. S. Iyengar, 
 J. Tomasi, M. Cossi, J. M. Millam, M. Klene, C. Adamo, R. Cammi, 
 J. W. Ochterski, R. L. Martin, K. Morokuma, O. Farkas, 
 J. B. Foresman, and D. J. Fox, Gaussian, Inc., Wallingford CT, 2019.
 
 ******************************************
 Gaussian 16:  ES64L-G16RevC.01  3-Jul-2019
                19-Jan-2021 
 ******************************************
 %chk=ccc_Best_geom_CCSDT_aug_cc-pVTZ.chk
 %nprocshared=64
 Will use up to   64 processors via shared memory.
 %mem=100GB
 ----------------------
 #p ccsd(t) aug-cc-pvtz
 ----------------------
 1/38=1,172=1/1;
 2/12=2,17=6,18=5,40=1/2;
 3/5=16,6=1,7=10,11=9,25=1,30=1/1,2,3;
 4//1;
 5/5=2,38=5/2;
 8/6=4,9=120000,10=1/1,4;
 9/5=7,14=2/13;
 6/7=2,8=2,9=2,10=2/1;
 99/5=1,9=1/99;
 Leave Link    1 at Tue Jan 19 05:30:56 2021, MaxMem= 13421772800 cpu:               3.0 elap:               0.1
 (Enter /home/share/software/programs/Gaussian/g16/l101.exe)
 --------------------------
 start best geom PCCP paper
 --------------------------
 Symbolic Z-matrix:
 Charge =  0 Multiplicity = 1
 N
 H                    1    B1
 C                    1    B2       2    A1
 C                    3    B3       1    A2       2    D1       0
 H                    3    B4       1    A3       4    D2       0
 H                    3    B5       1    A4       4    D3       0
 O                    4    B6       3    A5       1    D4       0
 O                    4    B7       3    A6       1    D5       0
 H                    1    B8       3    A7       4    D6       0
 H                    8    B9       4    A8       3    D7       0
       Variables:
  B1                    1.0091                   
  B2                    1.4609                   
  B3                    1.5252                   
  B4                    1.0891                   
  B5                    1.089                    
  B6                    1.2001                   
  B7                    1.3356                   
  B8                    1.008                    
  B9                    0.976                    
  A1                  112.0646                   
  A2                  111.6045                   
  A3                  110.2343                   
  A4                  113.9016                   
  A5                  122.6125                   
  A6                  114.3853                   
  A7                  112.2608                   
  A8                  105.7699                   
  D1                  101.3936                   
  D2                  117.8521                   
  D3                 -121.6454                   
  D4                 -171.93                     
  D5                    8.8971                   
  D6                 -136.9715                   
  D7                   -1.3866                   
 
 ITRead=  0  0  0  0  0  0  0  0  0  0
 MicOpt= -1 -1 -1 -1 -1 -1 -1 -1 -1 -1
 NAtoms=     10 NQM=       10 NQMF=       0 NMMI=      0 NMMIF=      0
                NMic=       0 NMicF=      0.
                    Isotopes and Nuclear Properties:
 (Nuclear quadrupole moments (NQMom) in fm**2, nuclear magnetic moments (NMagM)
  in nuclear magnetons)

  Atom         1           2           3           4           5           6           7           8           9          10
 IAtWgt=          14           1          12          12           1           1          16          16           1           1
 AtmWgt=  14.0030740   1.0078250  12.0000000  12.0000000   1.0078250   1.0078250  15.9949146  15.9949146   1.0078250   1.0078250
 NucSpn=           2           1           0           0           1           1           0           0           1           1
 AtZEff=  -0.0000000  -0.0000000  -0.0000000  -0.0000000  -0.0000000  -0.0000000  -0.0000000  -0.0000000  -0.0000000  -0.0000000
 NQMom=    2.0440000   0.0000000   0.0000000   0.0000000   0.0000000   0.0000000   0.0000000   0.0000000   0.0000000   0.0000000
 NMagM=    0.4037610   2.7928460   0.0000000   0.0000000   2.7928460   2.7928460   0.0000000   0.0000000   2.7928460   2.7928460
 AtZNuc=   7.0000000   1.0000000   6.0000000   6.0000000   1.0000000   1.0000000   8.0000000   8.0000000   1.0000000   1.0000000
 Leave Link  101 at Tue Jan 19 05:30:57 2021, MaxMem= 13421772800 cpu:               8.0 elap:               0.2
 (Enter /home/share/software/programs/Gaussian/g16/l202.exe)
                          Input orientation:                          
 ---------------------------------------------------------------------
 Center     Atomic      Atomic             Coordinates (Angstroms)
 Number     Number       Type             X           Y           Z
 ---------------------------------------------------------------------
      1          7           0        0.000000    0.000000    0.000000
      2          1           0        0.000000    0.000000    1.009100
      3          6           0        1.353905    0.000000   -0.548790
      4          6           0        1.769118   -1.390106   -1.019362
      5          1           0        1.405706    0.646494   -1.423719
      6          1           0        2.113699    0.344627    0.151115
      7          8           0        2.887214   -1.646392   -1.372093
      8          8           0        0.781571   -2.289312   -1.021685
      9          1           0       -0.537692    0.794255   -0.310017
     10          1           0       -0.004808   -1.820532   -0.683410
 ---------------------------------------------------------------------
                    Distance matrix (angstroms):
                    1          2          3          4          5
     1  N    0.000000
     2  H    1.009100   0.000000
     3  C    1.460900   2.063996   0.000000
     4  C    2.470076   3.029329   1.525200   0.000000
     5  H    2.102603   2.883153   1.089100   2.107916   0.000000
     6  H    2.146934   2.307082   1.089000   2.120861   1.752848
     7  O    3.595727   4.088605   2.395719   1.200100   2.730358
     8  O    2.625955   3.158463   2.406688   1.335600   3.028223
     9  H    1.008000   1.630957   2.065428   3.255146   2.244763
    10  H    1.944584   2.485749   2.275645   1.856056   2.936635
                    6          7          8          9         10
     6  H    0.000000
     7  O    2.623480   0.000000
     8  O    3.176107   2.229320   0.000000
     9  H    2.728494   4.337597   3.428602   0.000000
    10  H    3.142040   2.977986   0.976000   2.694531   0.000000
 Stoichiometry    C2H5NO2
 Framework group  C1[X(C2H5NO2)]
 Deg. of freedom    24
 Full point group                 C1      NOp   1
 Largest Abelian subgroup         C1      NOp   1
 Largest concise Abelian subgroup C1      NOp   1
                         Standard orientation:                         
 ---------------------------------------------------------------------
 Center     Atomic      Atomic             Coordinates (Angstroms)
 Number     Number       Type             X           Y           Z
 ---------------------------------------------------------------------
      1          7           0       -1.777783    0.124928   -0.048772
      2          1           0       -2.176227    0.113925   -0.975812
      3          6           0       -0.642823   -0.786994    0.071611
      4          6           0        0.686110   -0.041625    0.003814
      5          1           0       -0.662886   -1.287754    1.038553
      6          1           0       -0.617441   -1.563047   -0.691946
      7          8           0        1.742553   -0.607441   -0.059578
      8          8           0        0.574514    1.288852    0.038515
      9          1           0       -2.512293   -0.090938    0.606942
     10          1           0       -0.382931    1.473747    0.079614
 ---------------------------------------------------------------------
 Rotational constants (GHZ):          10.2054237           4.0954771           3.0305609
 Leave Link  202 at Tue Jan 19 05:30:57 2021, MaxMem= 13421772800 cpu:               3.7 elap:               0.1
 (Enter /home/share/software/programs/Gaussian/g16/l301.exe)
 Standard basis: Aug-CC-pVTZ (5D, 7F)
 Ernie: Thresh=  0.10000D-02 Tol=  0.10000D-05 Strict=F.
 Ernie:  15 primitive shells out of 205 were deleted.
 There are   400 symmetry adapted cartesian basis functions of A   symmetry.
 There are   345 symmetry adapted basis functions of A   symmetry.
   345 basis functions,   495 primitive gaussians,   400 cartesian basis functions
    20 alpha electrons       20 beta electrons
       nuclear repulsion energy       181.0042859132 Hartrees.
 IExCor=    0 DFT=F Ex=HF Corr=None ExCW=0 ScaHFX=  1.000000
 ScaDFX=  1.000000  1.000000  1.000000  1.000000 ScalE2=  1.000000  1.000000
 IRadAn=      5 IRanWt=     -1 IRanGd=            0 ICorTp=0 IEmpDi=  4
 NAtoms=   10 NActive=   10 NUniq=   10 SFac= 1.00D+00 NAtFMM=   60 NAOKFM=F Big=F
 Integral buffers will be    131072 words long.
 Raffenetti 1 integral format.
 Two-electron integral symmetry is turned on.
 Leave Link  301 at Tue Jan 19 05:30:57 2021, MaxMem= 13421772800 cpu:               4.7 elap:               0.1
 (Enter /home/share/software/programs/Gaussian/g16/l302.exe)
 NPDir=0 NMtPBC=     1 NCelOv=     1 NCel=       1 NClECP=     1 NCelD=      1
         NCelK=      1 NCelE2=     1 NClLst=     1 CellRange=     0.0.
 One-electron integrals computed using PRISM.
 One-electron integral symmetry used in STVInt
 NBasis=   345 RedAO= T EigKep=  1.85D-05  NBF=   345
 NBsUse=   345 1.00D-06 EigRej= -1.00D+00 NBFU=   345
 Leave Link  302 at Tue Jan 19 05:30:57 2021, MaxMem= 13421772800 cpu:              25.0 elap:               0.4
 (Enter /home/share/software/programs/Gaussian/g16/l303.exe)
 DipDrv:  MaxL=1.
 Leave Link  303 at Tue Jan 19 05:30:58 2021, MaxMem= 13421772800 cpu:               5.7 elap:               0.1
 (Enter /home/share/software/programs/Gaussian/g16/l401.exe)
 ExpMin= 2.53D-02 ExpMax= 1.53D+04 ExpMxC= 5.22D+02 IAcc=3 IRadAn=         5 AccDes= 0.00D+00
 Harris functional with IExCor=  205 and IRadAn=       5 diagonalized for initial guess.
 HarFok:  IExCor=  205 AccDes= 0.00D+00 IRadAn=         5 IDoV= 1 UseB2=F ITyADJ=14
 ICtDFT=  3500011 ScaDFX=  1.000000  1.000000  1.000000  1.000000
 FoFCou: FMM=F IPFlag=           0 FMFlag=      100000 FMFlg1=           0
         NFxFlg=           0 DoJE=T BraDBF=F KetDBF=T FulRan=T
         wScrn=  0.000000 ICntrl=       500 IOpCl=  0 I1Cent=   200000004 NGrid=           0
         NMat0=    1 NMatS0=      1 NMatT0=    0 NMatD0=    1 NMtDS0=    0 NMtDT0=    0
 Petite list used in FoFCou.
 Harris En= -283.231986969462    
 JPrj=0 DoOrth=F DoCkMO=F.
 Leave Link  401 at Tue Jan 19 05:30:58 2021, MaxMem= 13421772800 cpu:              32.7 elap:               0.6
 (Enter /home/share/software/programs/Gaussian/g16/l502.exe)
 Keep R1 ints in memory in canonical form, NReq=1813695493.
 FoFCou: FMM=F IPFlag=           0 FMFlag=           0 FMFlg1=           0
         NFxFlg=           0 DoJE=F BraDBF=F KetDBF=F FulRan=T
         wScrn=  0.000000 ICntrl=       600 IOpCl=  0 I1Cent=           0 NGrid=           0
         NMat0=    1 NMatS0=  59685 NMatT0=    0 NMatD0=    1 NMtDS0=    0 NMtDT0=    0
 Symmetry not used in FoFCou.
 Two-electron integral symmetry not used.
 Closed shell SCF:
 Using DIIS extrapolation, IDIIS=  1040.
 NGot= 13421772800 LenX= 11640244179 LenY= 11640083738
 Requested convergence on RMS density matrix=1.00D-08 within 128 cycles.
 Requested convergence on MAX density matrix=1.00D-06.
 Requested convergence on             energy=1.00D-06.
 No special actions if energy rises.

 Cycle   1  Pass 1  IDiag  1:
 E= -282.717194442110    
 DIIS: error= 2.35D-02 at cycle   1 NSaved=   1.
 NSaved= 1 IEnMin= 1 EnMin= -282.717194442110     IErMin= 1 ErrMin= 2.35D-02
 ErrMax= 2.35D-02  0.00D+00 EMaxC= 1.00D-01 BMatC= 5.87D-01 BMatP= 5.87D-01
 IDIUse=3 WtCom= 7.65D-01 WtEn= 2.35D-01
 Coeff-Com:  0.100D+01
 Coeff-En:   0.100D+01
 Coeff:      0.100D+01
 Gap=     0.573 Goal=   None    Shift=    0.000
 GapD=    0.573 DampG=2.000 DampE=0.500 DampFc=1.0000 IDamp=-1.
 RMSDP=1.44D-03 MaxDP=7.55D-02              OVMax= 1.28D-01

 Cycle   2  Pass 1  IDiag  1:
 E= -282.897650706349     Delta-E=       -0.180456264239 Rises=F Damp=F
 DIIS: error= 1.06D-02 at cycle   2 NSaved=   2.
 NSaved= 2 IEnMin= 2 EnMin= -282.897650706349     IErMin= 2 ErrMin= 1.06D-02
 ErrMax= 1.06D-02  0.00D+00 EMaxC= 1.00D-01 BMatC= 7.65D-02 BMatP= 5.87D-01
 IDIUse=3 WtCom= 8.94D-01 WtEn= 1.06D-01
 Coeff-Com:  0.193D+00 0.807D+00
 Coeff-En:   0.000D+00 0.100D+01
 Coeff:      0.173D+00 0.827D+00
 Gap=     0.481 Goal=   None    Shift=    0.000
 RMSDP=5.87D-04 MaxDP=3.33D-02 DE=-1.80D-01 OVMax= 5.15D-02

 Cycle   3  Pass 1  IDiag  1:
 E= -282.941003237169     Delta-E=       -0.043352530819 Rises=F Damp=F
 DIIS: error= 3.57D-03 at cycle   3 NSaved=   3.
 NSaved= 3 IEnMin= 3 EnMin= -282.941003237169     IErMin= 3 ErrMin= 3.57D-03
 ErrMax= 3.57D-03  0.00D+00 EMaxC= 1.00D-01 BMatC= 1.08D-02 BMatP= 7.65D-02
 IDIUse=3 WtCom= 9.64D-01 WtEn= 3.57D-02
 Coeff-Com: -0.226D-01 0.245D+00 0.778D+00
 Coeff-En:   0.000D+00 0.000D+00 0.100D+01
 Coeff:     -0.218D-01 0.236D+00 0.786D+00
 Gap=     0.445 Goal=   None    Shift=    0.000
 RMSDP=1.59D-04 MaxDP=1.06D-02 DE=-4.34D-02 OVMax= 2.54D-02

 Cycle   4  Pass 1  IDiag  1:
 E= -282.947596723077     Delta-E=       -0.006593485909 Rises=F Damp=F
 DIIS: error= 8.61D-04 at cycle   4 NSaved=   4.
 NSaved= 4 IEnMin= 4 EnMin= -282.947596723077     IErMin= 4 ErrMin= 8.61D-04
 ErrMax= 8.61D-04  0.00D+00 EMaxC= 1.00D-01 BMatC= 3.66D-04 BMatP= 1.08D-02
 IDIUse=3 WtCom= 9.91D-01 WtEn= 8.61D-03
 Coeff-Com: -0.108D-01 0.539D-01 0.241D+00 0.716D+00
 Coeff-En:   0.000D+00 0.000D+00 0.000D+00 0.100D+01
 Coeff:     -0.107D-01 0.534D-01 0.239D+00 0.718D+00
 Gap=     0.440 Goal=   None    Shift=    0.000
 RMSDP=3.63D-05 MaxDP=1.28D-03 DE=-6.59D-03 OVMax= 4.08D-03

 Cycle   5  Pass 1  IDiag  1:
 E= -282.947913155255     Delta-E=       -0.000316432178 Rises=F Damp=F
 DIIS: error= 2.87D-04 at cycle   5 NSaved=   5.
 NSaved= 5 IEnMin= 5 EnMin= -282.947913155255     IErMin= 5 ErrMin= 2.87D-04
 ErrMax= 2.87D-04  0.00D+00 EMaxC= 1.00D-01 BMatC= 2.50D-05 BMatP= 3.66D-04
 IDIUse=3 WtCom= 9.97D-01 WtEn= 2.87D-03
 Coeff-Com:  0.189D-02-0.223D-01-0.769D-01 0.210D-01 0.108D+01
 Coeff-En:   0.000D+00 0.000D+00 0.000D+00 0.000D+00 0.100D+01
 Coeff:      0.189D-02-0.223D-01-0.767D-01 0.210D-01 0.108D+01
 Gap=     0.441 Goal=   None    Shift=    0.000
 RMSDP=1.88D-05 MaxDP=1.02D-03 DE=-3.16D-04 OVMax= 3.49D-03

 Cycle   6  Pass 1  IDiag  1:
 E= -282.947962330844     Delta-E=       -0.000049175589 Rises=F Damp=F
 DIIS: error= 7.21D-05 at cycle   6 NSaved=   6.
 NSaved= 6 IEnMin= 6 EnMin= -282.947962330844     IErMin= 6 ErrMin= 7.21D-05
 ErrMax= 7.21D-05  0.00D+00 EMaxC= 1.00D-01 BMatC= 4.11D-06 BMatP= 2.50D-05
 IDIUse=1 WtCom= 1.00D+00 WtEn= 0.00D+00
 Coeff-Com:  0.146D-02-0.107D-01-0.406D-01-0.827D-01 0.220D+00 0.913D+00
 Coeff:      0.146D-02-0.107D-01-0.406D-01-0.827D-01 0.220D+00 0.913D+00
 Gap=     0.441 Goal=   None    Shift=    0.000
 RMSDP=7.82D-06 MaxDP=4.18D-04 DE=-4.92D-05 OVMax= 1.01D-03

 Cycle   7  Pass 1  IDiag  1:
 E= -282.947969711289     Delta-E=       -0.000007380445 Rises=F Damp=F
 DIIS: error= 4.54D-05 at cycle   7 NSaved=   7.
 NSaved= 7 IEnMin= 7 EnMin= -282.947969711289     IErMin= 7 ErrMin= 4.54D-05
 ErrMax= 4.54D-05  0.00D+00 EMaxC= 1.00D-01 BMatC= 4.98D-07 BMatP= 4.11D-06
 IDIUse=1 WtCom= 1.00D+00 WtEn= 0.00D+00
 Coeff-Com: -0.163D-03 0.236D-02 0.102D-01-0.120D-01-0.119D+00-0.139D-02
 Coeff-Com:  0.112D+01
 Coeff:     -0.163D-03 0.236D-02 0.102D-01-0.120D-01-0.119D+00-0.139D-02
 Coeff:      0.112D+01
 Gap=     0.441 Goal=   None    Shift=    0.000
 RMSDP=2.97D-06 MaxDP=1.42D-04 DE=-7.38D-06 OVMax= 6.71D-04

 Cycle   8  Pass 1  IDiag  1:
 E= -282.947971061371     Delta-E=       -0.000001350083 Rises=F Damp=F
 DIIS: error= 1.20D-05 at cycle   8 NSaved=   8.
 NSaved= 8 IEnMin= 8 EnMin= -282.947971061371     IErMin= 8 ErrMin= 1.20D-05
 ErrMax= 1.20D-05  0.00D+00 EMaxC= 1.00D-01 BMatC= 7.32D-08 BMatP= 4.98D-07
 IDIUse=1 WtCom= 1.00D+00 WtEn= 0.00D+00
 Coeff-Com: -0.202D-03 0.147D-02 0.580D-02 0.795D-02-0.220D-01-0.126D+00
 Coeff-Com: -0.552D-01 0.119D+01
 Coeff:     -0.202D-03 0.147D-02 0.580D-02 0.795D-02-0.220D-01-0.126D+00
 Coeff:     -0.552D-01 0.119D+01
 Gap=     0.441 Goal=   None    Shift=    0.000
 RMSDP=1.28D-06 MaxDP=6.19D-05 DE=-1.35D-06 OVMax= 2.82D-04

 Cycle   9  Pass 1  IDiag  1:
 E= -282.947971267539     Delta-E=       -0.000000206167 Rises=F Damp=F
 DIIS: error= 3.49D-06 at cycle   9 NSaved=   9.
 NSaved= 9 IEnMin= 9 EnMin= -282.947971267539     IErMin= 9 ErrMin= 3.49D-06
 ErrMax= 3.49D-06  0.00D+00 EMaxC= 1.00D-01 BMatC= 9.14D-09 BMatP= 7.32D-08
 IDIUse=1 WtCom= 1.00D+00 WtEn= 0.00D+00
 Coeff-Com: -0.207D-04-0.110D-05-0.786D-04 0.210D-02 0.126D-01-0.231D-01
 Coeff-Com: -0.143D+00 0.194D+00 0.957D+00
 Coeff:     -0.207D-04-0.110D-05-0.786D-04 0.210D-02 0.126D-01-0.231D-01
 Coeff:     -0.143D+00 0.194D+00 0.957D+00
 Gap=     0.441 Goal=   None    Shift=    0.000
 RMSDP=3.46D-07 MaxDP=1.85D-05 DE=-2.06D-07 OVMax= 8.05D-05

 Cycle  10  Pass 1  IDiag  1:
 E= -282.947971287417     Delta-E=       -0.000000019879 Rises=F Damp=F
 DIIS: error= 1.24D-06 at cycle  10 NSaved=  10.
 NSaved=10 IEnMin=10 EnMin= -282.947971287417     IErMin=10 ErrMin= 1.24D-06
 ErrMax= 1.24D-06  0.00D+00 EMaxC= 1.00D-01 BMatC= 1.12D-09 BMatP= 9.14D-09
 IDIUse=1 WtCom= 1.00D+00 WtEn= 0.00D+00
 Coeff-Com:  0.276D-04-0.221D-03-0.833D-03-0.141D-02 0.480D-02 0.158D-01
 Coeff-Com:  0.130D-02-0.168D+00 0.714D-01 0.108D+01
 Coeff:      0.276D-04-0.221D-03-0.833D-03-0.141D-02 0.480D-02 0.158D-01
 Coeff:      0.130D-02-0.168D+00 0.714D-01 0.108D+01
 Gap=     0.441 Goal=   None    Shift=    0.000
 RMSDP=1.37D-07 MaxDP=7.45D-06 DE=-1.99D-08 OVMax= 2.46D-05

 Cycle  11  Pass 1  IDiag  1:
 E= -282.947971289898     Delta-E=       -0.000000002480 Rises=F Damp=F
 DIIS: error= 3.30D-07 at cycle  11 NSaved=  11.
 NSaved=11 IEnMin=11 EnMin= -282.947971289898     IErMin=11 ErrMin= 3.30D-07
 ErrMax= 3.30D-07  0.00D+00 EMaxC= 1.00D-01 BMatC= 7.46D-11 BMatP= 1.12D-09
 IDIUse=1 WtCom= 1.00D+00 WtEn= 0.00D+00
 Coeff-Com:  0.281D-07 0.102D-04 0.855D-04-0.845D-04-0.126D-02 0.104D-03
 Coeff-Com:  0.116D-01 0.185D-02-0.884D-01-0.128D+00 0.120D+01
 Coeff:      0.281D-07 0.102D-04 0.855D-04-0.845D-04-0.126D-02 0.104D-03
 Coeff:      0.116D-01 0.185D-02-0.884D-01-0.128D+00 0.120D+01
 Gap=     0.441 Goal=   None    Shift=    0.000
 RMSDP=4.34D-08 MaxDP=1.83D-06 DE=-2.48D-09 OVMax= 5.33D-06

 Cycle  12  Pass 1  IDiag  1:
 E= -282.947971290081     Delta-E=       -0.000000000184 Rises=F Damp=F
 DIIS: error= 8.42D-08 at cycle  12 NSaved=  12.
 NSaved=12 IEnMin=12 EnMin= -282.947971290081     IErMin=12 ErrMin= 8.42D-08
 ErrMax= 8.42D-08  0.00D+00 EMaxC= 1.00D-01 BMatC= 4.83D-12 BMatP= 7.46D-11
 IDIUse=1 WtCom= 1.00D+00 WtEn= 0.00D+00
 Coeff-Com: -0.189D-05 0.140D-04 0.545D-04 0.990D-04-0.225D-03-0.115D-02
 Coeff-Com: -0.158D-02 0.138D-01 0.213D-02-0.720D-01-0.101D+00 0.116D+01
 Coeff:     -0.189D-05 0.140D-04 0.545D-04 0.990D-04-0.225D-03-0.115D-02
 Coeff:     -0.158D-02 0.138D-01 0.213D-02-0.720D-01-0.101D+00 0.116D+01
 Gap=     0.441 Goal=   None    Shift=    0.000
 RMSDP=1.26D-08 MaxDP=5.73D-07 DE=-1.84D-10 OVMax= 1.38D-06

 Cycle  13  Pass 1  IDiag  1:
 E= -282.947971290092     Delta-E=       -0.000000000011 Rises=F Damp=F
 DIIS: error= 2.89D-08 at cycle  13 NSaved=  13.
 NSaved=13 IEnMin=13 EnMin= -282.947971290092     IErMin=13 ErrMin= 2.89D-08
 ErrMax= 2.89D-08  0.00D+00 EMaxC= 1.00D-01 BMatC= 4.96D-13 BMatP= 4.83D-12
 IDIUse=1 WtCom= 1.00D+00 WtEn= 0.00D+00
 Coeff-Com:  0.684D-07-0.157D-05-0.103D-04 0.377D-05 0.142D-03 0.340D-04
 Coeff-Com: -0.132D-02 0.656D-05 0.856D-02 0.115D-01-0.117D+00 0.302D-01
 Coeff-Com:  0.107D+01
 Coeff:      0.684D-07-0.157D-05-0.103D-04 0.377D-05 0.142D-03 0.340D-04
 Coeff:     -0.132D-02 0.656D-05 0.856D-02 0.115D-01-0.117D+00 0.302D-01
 Coeff:      0.107D+01
 Gap=     0.441 Goal=   None    Shift=    0.000
 RMSDP=3.35D-09 MaxDP=1.07D-07 DE=-1.06D-11 OVMax= 5.30D-07

 SCF Done:  E(RHF) =  -282.947971290     A.U. after   13 cycles
            NFock= 13  Conv=0.33D-08     -V/T= 2.0015
 KE= 2.825363330207D+02 PE=-1.028268692120D+03 EE= 2.817801018964D+02
 Leave Link  502 at Tue Jan 19 05:31:51 2021, MaxMem= 13421772800 cpu:             324.8 elap:              52.7
 (Enter /home/share/software/programs/Gaussian/g16/l801.exe)
 Windowed orbitals will be sorted by symmetry type.
 ExpMin= 2.53D-02 ExpMax= 1.53D+04 ExpMxC= 5.22D+02 IAcc=3 IRadAn=         5 AccDes= 0.00D+00
 HarFok:  IExCor=  205 AccDes= 0.00D+00 IRadAn=         5 IDoV=-2 UseB2=F ITyADJ=14
 ICtDFT= 12500011 ScaDFX=  1.000000  1.000000  1.000000  1.000000
 Largest valence mixing into a core orbital is  2.04D-04
 Largest core mixing into a valence orbital is  3.06D-05
 Range of M.O.s used for correlation:     6   345
 NBasis=   345 NAE=    20 NBE=    20 NFC=     5 NFV=     0
 NROrb=    340 NOA=    15 NOB=    15 NVA=   325 NVB=   325

 **** Warning!!: The largest alpha MO coefficient is  0.52319773D+02

 Leave Link  801 at Tue Jan 19 05:31:51 2021, MaxMem= 13421772800 cpu:              12.9 elap:               0.3
 (Enter /home/share/software/programs/Gaussian/g16/l804.exe)
 Closed-shell transformation, MDV= 13421772800 ITran=4 ISComp=1.
 Unit  1 TFree=       3819524 TCopy=       1946891.
 Semi-Direct transformation.
 ModeAB=           2 MOrb=            15 LenV=   13418814052
 LASXX=    286480065 LTotXX=   286480065 LenRXX=   286480065
 LTotAB=   288975150 MaxLAS=   409020000 LenRXY=   409020000
 NonZer=   572960130 LenScr=   859832320 LnRSAI=           0
 LnScr1=           0 LExtra=           0 Total=   1555332385
 MaxDsk=          -1 SrtSym=           F ITran=            4
 DoSDTr:  NPSUse= 64
 JobTyp=0 Pass  1:  I=   1 to  15.
 (rs|ai) integrals will be sorted in core.
 Complete sort for first half transformation.
 First half transformation complete.
 Begin second half transformation for I=  10.
 Begin second half transformation for I=  10.
 Complete sort for second half transformation.
 Second half transformation complete.
 SymMOI:  orbitals are not symmetric.
 Spin components of T(2) and E(2):
     alpha-alpha T2 =       0.3653613123D-01 E2=     -0.1296914862D+00
     alpha-beta  T2 =       0.2023457283D+00 E2=     -0.7733791449D+00
     beta-beta   T2 =       0.3653613123D-01 E2=     -0.1296914862D+00
 ANorm=    0.1129344053D+01
 E2 =    -0.1032762117D+01 EUMP2 =    -0.28398073340741D+03
 Leave Link  804 at Tue Jan 19 05:34:55 2021, MaxMem= 13421772800 cpu:           11719.1 elap:             183.6
 (Enter /home/share/software/programs/Gaussian/g16/l913.exe)
 CIDS:  MDV= 13421772800.
 Frozen-core window:  NFC=   5 NFV=   0.
 IFCWin=0 IBDFC=1 NFBD=     0     0 NFCmp=     0     0 NFFFC=     0     0
 Using DD3R+UMP44R for 1st iteration.
 Using DD4RQ for 2nd and later iterations.
 Keep R2 and R3 ints in memory in canonical form, NReq=3594887833.
 FoFCou: FMM=F IPFlag=           0 FMFlag=           0 FMFlg1=           0
         NFxFlg=           0 DoJE=F BraDBF=F KetDBF=F FulRan=T
         wScrn=  0.000000 ICntrl=       600 IOpCl=  0 I1Cent=           0 NGrid=           0
         NMat0=    1 NMatS0=  59685 NMatT0=    0 NMatD0=    1 NMtDS0=    0 NMtDT0=    0
 Symmetry not used in FoFCou.
 Two-electron integral symmetry not used.
 CIDS: In Core Option IDoMem=           1.
 CCSD(T)
 =======
 Iterations=  50 Convergence= 0.100D-06
 Produce multiple copies of IABC intergrals
 Iteration Nr.   1
 **********************
 DD1Dir will call FoFMem   1 times, MxPair=       240
 NAB=   120 NAA=     0 NBB=     0.
 MP4(R+Q)=  0.23305839D-01
 Maximum subspace dimension=  5
 A-vector RMS=  1.9125809D-03 Max=  2.2664269D-02 conv= 1.00D-05.
 RLE energy=       -1.0186997055
 E3=       -0.95980833D-02        EUMP3=      -0.28399033149D+03
 E4(DQ)=    0.24104184D-02        UMP4(DQ)=   -0.28398792107D+03
 E4(SDQ)=  -0.90799709D-02        UMP4(SDQ)=  -0.28399941146D+03
 VARIATIONAL ENERGIES WITH THE FIRST-ORDER WAVEFUNCTION:
 DE(Corr)=  -1.0185059     E(Corr)=     -283.96647716    
 NORM(A)=   0.11285954D+01
 Iteration Nr.   2
 **********************
 DD1Dir will call FoFMem   1 times, MxPair=       240
 NAB=   120 NAA=     0 NBB=     0.
 A-vector RMS=  2.8388993D-04 Max=  4.1464020D-03 conv= 1.00D-05.
 RLE energy=       -1.0465450509
 DE(Corr)=  -1.0463274     E(CORR)=     -283.99429871     Delta=-2.78D-02
 NORM(A)=   0.11381663D+01
 Iteration Nr.   3
 **********************
 DD1Dir will call FoFMem   1 times, MxPair=       240
 NAB=   120 NAA=     0 NBB=     0.
 A-vector RMS=  3.6484351D-04 Max=  4.9144773D-03 conv= 1.00D-05.
 RLE energy=       -1.0480930482
 DE(Corr)=  -1.0456961     E(CORR)=     -283.99366737     Delta= 6.31D-04
 NORM(A)=   0.11407708D+01
 Iteration Nr.   4
 **********************
 DD1Dir will call FoFMem   1 times, MxPair=       240
 NAB=   120 NAA=     0 NBB=     0.
 A-vector RMS=  6.3408981D-05 Max=  5.8992588D-04 conv= 1.00D-05.
 RLE energy=       -1.0482543179
 DE(Corr)=  -1.0480652     E(CORR)=     -283.99603644     Delta=-2.37D-03
 NORM(A)=   0.11415652D+01
 Iteration Nr.   5
 **********************
 DD1Dir will call FoFMem   1 times, MxPair=       240
 NAB=   120 NAA=     0 NBB=     0.
 A-vector RMS=  3.8739086D-05 Max=  3.9479737D-04 conv= 1.00D-05.
 RLE energy=       -1.0483639899
 DE(Corr)=  -1.0483220     E(CORR)=     -283.99629334     Delta=-2.57D-04
 NORM(A)=   0.11418210D+01
 Iteration Nr.   6
 **********************
 DD1Dir will call FoFMem   1 times, MxPair=       240
 NAB=   120 NAA=     0 NBB=     0.
 A-vector RMS=  1.2745963D-05 Max=  1.4796793D-04 conv= 1.00D-05.
 RLE energy=       -1.0483626869
 DE(Corr)=  -1.0483454     E(CORR)=     -283.99631671     Delta=-2.34D-05
 NORM(A)=   0.11418602D+01
 Iteration Nr.   7
 **********************
 DD1Dir will call FoFMem   1 times, MxPair=       240
 NAB=   120 NAA=     0 NBB=     0.
 A-vector RMS=  5.3847999D-06 Max=  8.6108549D-05 conv= 1.00D-05.
 RLE energy=       -1.0483314548
 DE(Corr)=  -1.0483465     E(CORR)=     -283.99631781     Delta=-1.11D-06
 NORM(A)=   0.11418598D+01
 Iteration Nr.   8
 **********************
 DD1Dir will call FoFMem   1 times, MxPair=       240
 NAB=   120 NAA=     0 NBB=     0.
 A-vector RMS=  1.6043150D-06 Max=  2.1744613D-05 conv= 1.00D-05.
 RLE energy=       -1.0483453505
 DE(Corr)=  -1.0483465     E(CORR)=     -283.99631783     Delta=-1.99D-08
 NORM(A)=   0.11418652D+01
 Iteration Nr.   9
 **********************
 DD1Dir will call FoFMem   1 times, MxPair=       240
 NAB=   120 NAA=     0 NBB=     0.
 A-vector RMS=  6.8645591D-07 Max=  1.1835152D-05 conv= 1.00D-05.
 RLE energy=       -1.0483441536
 DE(Corr)=  -1.0483442     E(CORR)=     -283.99631554     Delta= 2.30D-06
 NORM(A)=   0.11418655D+01
 Iteration Nr.  10
 **********************
 DD1Dir will call FoFMem   1 times, MxPair=       240
 NAB=   120 NAA=     0 NBB=     0.
 A-vector RMS=  3.0862555D-07 Max=  3.5543401D-06 conv= 1.00D-05.
 RLE energy=       -1.0483451785
 DE(Corr)=  -1.0483455     E(CORR)=     -283.99631675     Delta=-1.22D-06
 NORM(A)=   0.11418658D+01
 Iteration Nr.  11
 **********************
 DD1Dir will call FoFMem   1 times, MxPair=       240
 NAB=   120 NAA=     0 NBB=     0.
 A-vector RMS=  1.4988623D-07 Max=  1.5294328D-06 conv= 1.00D-05.
 RLE energy=       -1.0483454854
 DE(Corr)=  -1.0483453     E(CORR)=     -283.99631664     Delta= 1.19D-07
 NORM(A)=   0.11418661D+01
 Iteration Nr.  12
 **********************
 DD1Dir will call FoFMem   1 times, MxPair=       240
 NAB=   120 NAA=     0 NBB=     0.
 A-vector RMS=  7.3788104D-08 Max=  1.0629739D-06 conv= 1.00D-05.
 RLE energy=       -1.0483456995
 DE(Corr)=  -1.0483456     E(CORR)=     -283.99631694     Delta=-3.00D-07
 NORM(A)=   0.11418662D+01
 Iteration Nr.  13
 **********************
 DD1Dir will call FoFMem   1 times, MxPair=       240
 NAB=   120 NAA=     0 NBB=     0.
 A-vector RMS=  4.1286919D-08 Max=  4.6928069D-07 conv= 1.00D-05.
 RLE energy=       -1.0483457193
 DE(Corr)=  -1.0483457     E(CORR)=     -283.99631697     Delta=-3.75D-08
 NORM(A)=   0.11418663D+01
 CI/CC converged in   13 iterations to DelEn=-3.75D-08 Conv= 1.00D-07 ErrA1= 4.13D-08 Conv= 1.00D-05
 Wavefunction amplitudes converged. E(Corr)=     -283.99631697    
 Largest amplitude= 2.89D-02
 T4(AAA)= -0.13867631D-02
 T4(AAB)= -0.22421720D-01
 T5(AAA)=  0.86219104D-04
 T5(AAB)=  0.99490316D-03
 Time for triples=   148541.11 seconds.
 T4(CCSD)= -0.47616967D-01
 T5(CCSD)=  0.21622445D-02
 CCSD(T)= -0.28404177170D+03
 Discarding MO integrals.
 Leave Link  913 at Tue Jan 19 06:30:19 2021, MaxMem= 13421772800 cpu:          208013.4 elap:            3279.2
 (Enter /home/share/software/programs/Gaussian/g16/l601.exe)
 Copying SCF densities to generalized density rwf, IOpCl= 0 IROHF=0.

 **********************************************************************

            Population analysis using the SCF Density.

 **********************************************************************

 Orbital symmetries:
       Occupied  (A) (A) (A) (A) (A) (A) (A) (A) (A) (A) (A) (A)
                 (A) (A) (A) (A) (A) (A) (A) (A)
       Virtual   (A) (A) (A) (A) (A) (A) (A) (A) (A) (A) (A) (A)
                 (A) (A) (A) (A) (A) (A) (A) (A) (A) (A) (A) (A)
                 (A) (A) (A) (A) (A) (A) (A) (A) (A) (A) (A) (A)
                 (A) (A) (A) (A) (A) (A) (A) (A) (A) (A) (A) (A)
                 (A) (A) (A) (A) (A) (A) (A) (A) (A) (A) (A) (A)
                 (A) (A) (A) (A) (A) (A) (A) (A) (A) (A) (A) (A)
                 (A) (A) (A) (A) (A) (A) (A) (A) (A) (A) (A) (A)
                 (A) (A) (A) (A) (A) (A) (A) (A) (A) (A) (A) (A)
                 (A) (A) (A) (A) (A) (A) (A) (A) (A) (A) (A) (A)
                 (A) (A) (A) (A) (A) (A) (A) (A) (A) (A) (A) (A)
                 (A) (A) (A) (A) (A) (A) (A) (A) (A) (A) (A) (A)
                 (A) (A) (A) (A) (A) (A) (A) (A) (A) (A) (A) (A)
                 (A) (A) (A) (A) (A) (A) (A) (A) (A) (A) (A) (A)
                 (A) (A) (A) (A) (A) (A) (A) (A) (A) (A) (A) (A)
                 (A) (A) (A) (A) (A) (A) (A) (A) (A) (A) (A) (A)
                 (A) (A) (A) (A) (A) (A) (A) (A) (A) (A) (A) (A)
                 (A) (A) (A) (A) (A) (A) (A) (A) (A) (A) (A) (A)
                 (A) (A) (A) (A) (A) (A) (A) (A) (A) (A) (A) (A)
                 (A) (A) (A) (A) (A) (A) (A) (A) (A) (A) (A) (A)
                 (A) (A) (A) (A) (A) (A) (A) (A) (A) (A) (A) (A)
                 (A) (A) (A) (A) (A) (A) (A) (A) (A) (A) (A) (A)
                 (A) (A) (A) (A) (A) (A) (A) (A) (A) (A) (A) (A)
                 (A) (A) (A) (A) (A) (A) (A) (A) (A) (A) (A) (A)
                 (A) (A) (A) (A) (A) (A) (A) (A) (A) (A) (A) (A)
                 (A) (A) (A) (A) (A) (A) (A) (A) (A) (A) (A) (A)
                 (A) (A) (A) (A) (A) (A) (A) (A) (A) (A) (A) (A)
                 (A) (A) (A) (A) (A) (A) (A) (A) (A) (A) (A) (A)
                 (A)
 The electronic state is 1-A.
 Alpha  occ. eigenvalues --  -20.59876 -20.53444 -15.58860 -11.37497 -11.29105
 Alpha  occ. eigenvalues --   -1.45508  -1.35752  -1.22450  -0.97979  -0.81274
 Alpha  occ. eigenvalues --   -0.73743  -0.71498  -0.67781  -0.62810  -0.62362
 Alpha  occ. eigenvalues --   -0.56309  -0.55851  -0.47409  -0.46597  -0.42503
 Alpha virt. eigenvalues --    0.01634   0.03381   0.03859   0.04669   0.06149
 Alpha virt. eigenvalues --    0.08250   0.09654   0.09985   0.10077   0.11823
 Alpha virt. eigenvalues --    0.13283   0.13592   0.13809   0.15299   0.16321
 Alpha virt. eigenvalues --    0.16653   0.17799   0.19522   0.19869   0.21189
 Alpha virt. eigenvalues --    0.22791   0.23442   0.24564   0.25631   0.26601
 Alpha virt. eigenvalues --    0.26867   0.27435   0.28213   0.29477   0.30889
 Alpha virt. eigenvalues --    0.33535   0.34460   0.34724   0.35175   0.35918
 Alpha virt. eigenvalues --    0.36515   0.37031   0.38347   0.38419   0.40308
 Alpha virt. eigenvalues --    0.40994   0.41714   0.42107   0.43178   0.43843
 Alpha virt. eigenvalues --    0.46632   0.46885   0.48496   0.48957   0.50465
 Alpha virt. eigenvalues --    0.50897   0.51398   0.52722   0.53870   0.55441
 Alpha virt. eigenvalues --    0.56681   0.57988   0.58405   0.60994   0.61829
 Alpha virt. eigenvalues --    0.63499   0.65852   0.69092   0.70279   0.72586
 Alpha virt. eigenvalues --    0.74041   0.75357   0.76262   0.77178   0.77736
 Alpha virt. eigenvalues --    0.79377   0.81134   0.82218   0.84342   0.84981
 Alpha virt. eigenvalues --    0.86114   0.86337   0.88893   0.89609   0.90918
 Alpha virt. eigenvalues --    0.92001   0.92166   0.92632   0.94083   0.94950
 Alpha virt. eigenvalues --    0.97065   0.99481   1.00041   1.01013   1.01791
 Alpha virt. eigenvalues --    1.02609   1.04093   1.05303   1.05476   1.07197
 Alpha virt. eigenvalues --    1.08074   1.09377   1.10628   1.10909   1.12853
 Alpha virt. eigenvalues --    1.15053   1.16504   1.17444   1.18593   1.20093
 Alpha virt. eigenvalues --    1.21282   1.23283   1.25232   1.26591   1.27716
 Alpha virt. eigenvalues --    1.29358   1.29681   1.32369   1.32866   1.33562
 Alpha virt. eigenvalues --    1.36670   1.38129   1.40068   1.42125   1.43162
 Alpha virt. eigenvalues --    1.45593   1.46848   1.48140   1.49004   1.52556
 Alpha virt. eigenvalues --    1.53071   1.54233   1.56777   1.57096   1.60093
 Alpha virt. eigenvalues --    1.61089   1.62091   1.64253   1.65204   1.68599
 Alpha virt. eigenvalues --    1.69359   1.71049   1.71763   1.74197   1.77471
 Alpha virt. eigenvalues --    1.81094   1.82278   1.83218   1.83934   1.84651
 Alpha virt. eigenvalues --    1.88088   1.92555   1.93332   1.96505   1.97840
 Alpha virt. eigenvalues --    1.99964   2.03668   2.04798   2.08405   2.10147
 Alpha virt. eigenvalues --    2.10534   2.13420   2.14083   2.18002   2.19509
 Alpha virt. eigenvalues --    2.21857   2.24592   2.28507   2.29752   2.34260
 Alpha virt. eigenvalues --    2.36626   2.38470   2.43594   2.47175   2.47523
 Alpha virt. eigenvalues --    2.49218   2.49427   2.52975   2.53958   2.55852
 Alpha virt. eigenvalues --    2.57511   2.60758   2.62187   2.63438   2.64406
 Alpha virt. eigenvalues --    2.67955   2.69269   2.70912   2.74112   2.77018
 Alpha virt. eigenvalues --    2.79015   2.87172   2.87421   2.89393   2.91258
 Alpha virt. eigenvalues --    2.94909   2.98836   3.01250   3.02857   3.07133
 Alpha virt. eigenvalues --    3.12520   3.15518   3.25489   3.28513   3.30222
 Alpha virt. eigenvalues --    3.37896   3.42185   3.47959   3.51952   3.52411
 Alpha virt. eigenvalues --    3.56403   3.59184   3.65209   3.65381   3.70464
 Alpha virt. eigenvalues --    3.74605   3.77827   3.84270   3.85160   3.89029
 Alpha virt. eigenvalues --    3.92189   3.92304   3.97195   3.97447   3.99916
 Alpha virt. eigenvalues --    4.03600   4.04827   4.08183   4.13305   4.14314
 Alpha virt. eigenvalues --    4.16788   4.20449   4.22431   4.23026   4.25191
 Alpha virt. eigenvalues --    4.29016   4.32850   4.34625   4.37228   4.39275
 Alpha virt. eigenvalues --    4.41005   4.44814   4.49806   4.50904   4.51891
 Alpha virt. eigenvalues --    4.53027   4.54256   4.61587   4.62232   4.65411
 Alpha virt. eigenvalues --    4.65852   4.70758   4.72820   4.79030   4.82152
 Alpha virt. eigenvalues --    4.83220   4.85348   4.90760   4.94612   4.99032
 Alpha virt. eigenvalues --    5.02310   5.04340   5.06891   5.08400   5.12419
 Alpha virt. eigenvalues --    5.13675   5.14939   5.21791   5.23192   5.28361
 Alpha virt. eigenvalues --    5.31337   5.34150   5.36079   5.39535   5.43821
 Alpha virt. eigenvalues --    5.46454   5.50310   5.53722   5.55643   5.60949
 Alpha virt. eigenvalues --    5.68749   5.71136   5.84959   5.95868   5.99351
 Alpha virt. eigenvalues --    6.05276   6.05611   6.11046   6.17110   6.23477
 Alpha virt. eigenvalues --    6.27093   6.29130   6.37677   6.45668   6.58044
 Alpha virt. eigenvalues --    6.63269   6.65873   6.70274   6.75613   6.84332
 Alpha virt. eigenvalues --    6.87842   6.93465   6.98480   6.99414   7.00557
 Alpha virt. eigenvalues --    7.10210   7.19508   7.21088   7.25317   7.27078
 Alpha virt. eigenvalues --    7.36313   7.38500   7.45051   7.46356   7.58071
 Alpha virt. eigenvalues --    7.64461   7.67600   7.68800   7.80021   7.83533
 Alpha virt. eigenvalues --    7.91850   7.92560   8.04822   8.36066   8.52432
 Alpha virt. eigenvalues --   15.08113  15.91342  17.65974  18.28026  19.41129
          Condensed to atoms (all electrons):
               1          2          3          4          5          6
     1  N    6.628628   0.350508   0.154084   0.038139  -0.027600  -0.026008
     2  H    0.350508   0.587973  -0.007957   0.004713   0.003650  -0.004715
     3  C    0.154084  -0.007957   5.222262   0.074756   0.348907   0.362091
     4  C    0.038139   0.004713   0.074756   4.779476   0.032683   0.007143
     5  H   -0.027600   0.003650   0.348907   0.032683   0.314121   0.014378
     6  H   -0.026008  -0.004715   0.362091   0.007143   0.014378   0.319310
     7  O    0.003403   0.000993  -0.065832   0.403723  -0.000831   0.000295
     8  O   -0.039708  -0.001819  -0.024646   0.176759   0.005840   0.004275
     9  H    0.362180  -0.038840  -0.037547   0.017331  -0.001252   0.006475
    10  H    0.020856  -0.003429   0.007449   0.003273  -0.001633  -0.004178
               7          8          9         10
     1  N    0.003403  -0.039708   0.362180   0.020856
     2  H    0.000993  -0.001819  -0.038840  -0.003429
     3  C   -0.065832  -0.024646  -0.037547   0.007449
     4  C    0.403723   0.176759   0.017331   0.003273
     5  H   -0.000831   0.005840  -0.001252  -0.001633
     6  H    0.000295   0.004275   0.006475  -0.004178
     7  O    8.460413  -0.142733  -0.001512   0.017391
     8  O   -0.142733   8.273238  -0.002600   0.182781
     9  H   -0.001512  -0.002600   0.561925  -0.004940
    10  H    0.017391   0.182781  -0.004940   0.520059
 Mulliken charges:
               1
     1  N   -0.464483
     2  H    0.108924
     3  C   -0.033568
     4  C    0.462006
     5  H    0.311736
     6  H    0.320935
     7  O   -0.675312
     8  O   -0.431390
     9  H    0.138781
    10  H    0.262370
 Sum of Mulliken charges =  -0.00000
 Mulliken charges with hydrogens summed into heavy atoms:
               1
     1  N   -0.216778
     3  C    0.599104
     4  C    0.462006
     7  O   -0.675312
     8  O   -0.169019
 Electronic spatial extent (au):  <R**2>=            409.2315
 Charge=             -0.0000 electrons
 Dipole moment (field-independent basis, Debye):
    X=             -5.8995    Y=             -0.7049    Z=             -0.0099  Tot=              5.9415
 Quadrupole moment (field-independent basis, Debye-Ang):
   XX=            -32.2250   YY=            -31.3054   ZZ=            -27.1458
   XY=              1.8272   XZ=              0.5515   YZ=             -0.4840
 Traceless Quadrupole moment (field-independent basis, Debye-Ang):
   XX=             -1.9996   YY=             -1.0800   ZZ=              3.0796
   XY=              1.8272   XZ=              0.5515   YZ=             -0.4840
 Octapole moment (field-independent basis, Debye-Ang**2):
  XXX=            -25.9232  YYY=              2.1408  ZZZ=             -0.8306  XYY=             -4.5710
  XXY=              2.7586  XXZ=              0.2974  XZZ=             -3.7645  YZZ=             -0.5264
  YYZ=              0.0980  XYZ=              0.5932
 Hexadecapole moment (field-independent basis, Debye-Ang**3):
 XXXX=           -298.4232 YYYY=           -138.5500 ZZZZ=            -34.2966 XXXY=              9.5338
 XXXZ=             -0.7989 YYYX=             -3.1441 YYYZ=              0.9614 ZZZX=              2.2243
 ZZZY=             -1.0295 XXYY=            -84.6086 XXZZ=            -49.4695 YYZZ=            -28.6493
 XXYZ=             -2.3844 YYXZ=              0.0003 ZZXY=              0.6554
 N-N= 1.810042859132D+02 E-N=-1.028268689551D+03  KE= 2.825363330207D+02
 Leave Link  601 at Tue Jan 19 06:30:43 2021, MaxMem= 13421772800 cpu:              26.0 elap:               4.0
 (Enter /home/share/software/programs/Gaussian/g16/l9999.exe)
 Unable to Open any file for archive entry.
 1\1\GINC-CU39\SP\RCCSD(T)-FC\Aug-CC-pVTZ\C2H5N1O2\ROOT\19-Jan-2021\0\\
 #p ccsd(t) aug-cc-pvtz\\start best geom PCCP paper\\0,1\N\H,1,1.0091\C
 ,1,1.4609,2,112.0646\C,3,1.5252,1,111.6045,2,101.3936,0\H,3,1.0891,1,1
 10.2343,4,117.8521,0\H,3,1.089,1,113.9016,4,-121.6454,0\O,4,1.2001,3,1
 22.6125,1,-171.93,0\O,4,1.3356,3,114.3853,1,8.8971,0\H,1,1.008,3,112.2
 608,4,-136.9715,0\H,8,0.976,4,105.7699,3,-1.3866,0\\Version=ES64L-G16R
 evC.01\State=1-A\HF=-282.9479713\MP2=-283.9807334\MP3=-283.9903315\MP4
 D=-284.0112269\MP4DQ=-283.9879211\MP4SDQ=-283.9994115\CCSD=-283.996317
 \CCSD(T)=-284.0417717\RMSD=3.346e-09\PG=C01 [X(C2H5N1O2)]\\@
 The archive entry for this job was punched.


 A great many people think they are thinking when they
 are merely rearranging their prejudices.
                               -- William James
 Job cpu time:       2 days 13 hours  9 minutes 54.8 seconds.
 Elapsed time:       0 days  0 hours 58 minutes 42.0 seconds.
 File lengths (MBytes):  RWF= 100362 Int=      0 D2E=      0 Chk=     10 Scr=      2
 Normal termination of Gaussian 16 at Tue Jan 19 06:30:51 2021.
