 Entering Gaussian System, Link 0=g16
 Input=tct_Best_geom_CCSDT_aug_cc-pVTZ.gjf
 Output=tct_Best_geom_CCSDT_aug_cc-pVTZ.log
 Initial command:
 /home/share/software/programs/Gaussian/g16/l1.exe "/home/qr/scratch/Gau-147990.inp" -scrdir="/home/qr/scratch/"
 Entering Link 1 = /home/share/software/programs/Gaussian/g16/l1.exe PID=    147991.
  
 Copyright (c) 1988-2019, Gaussian, Inc.  All Rights Reserved.
  
 This is part of the Gaussian(R) 16 program.  It is based on
 the Gaussian(R) 09 system (copyright 2009, Gaussian, Inc.),
 the Gaussian(R) 03 system (copyright 2003, Gaussian, Inc.),
 the Gaussian(R) 98 system (copyright 1998, Gaussian, Inc.),
 the Gaussian(R) 94 system (copyright 1995, Gaussian, Inc.),
 the Gaussian 92(TM) system (copyright 1992, Gaussian, Inc.),
 the Gaussian 90(TM) system (copyright 1990, Gaussian, Inc.),
 the Gaussian 88(TM) system (copyright 1988, Gaussian, Inc.),
 the Gaussian 86(TM) system (copyright 1986, Carnegie Mellon
 University), and the Gaussian 82(TM) system (copyright 1983,
 Carnegie Mellon University). Gaussian is a federally registered
 trademark of Gaussian, Inc.
  
 This software contains proprietary and confidential information,
 including trade secrets, belonging to Gaussian, Inc.
  
 This software is provided under written license and may be
 used, copied, transmitted, or stored only in accord with that
 written license.
  
 The following legend is applicable only to US Government
 contracts under FAR:
  
                    RESTRICTED RIGHTS LEGEND
  
 Use, reproduction and disclosure by the US Government is
 subject to restrictions as set forth in subparagraphs (a)
 and (c) of the Commercial Computer Software - Restricted
 Rights clause in FAR 52.227-19.
  
 Gaussian, Inc.
 340 Quinnipiac St., Bldg. 40, Wallingford CT 06492
  
  
 ---------------------------------------------------------------
 Warning -- This program may not be used in any manner that
 competes with the business of Gaussian, Inc. or will provide
 assistance to any competitor of Gaussian, Inc.  The licensee
 of this program is prohibited from giving any competitor of
 Gaussian, Inc. access to this program.  By using this program,
 the user acknowledges that Gaussian, Inc. is engaged in the
 business of creating and licensing software in the field of
 computational chemistry and represents and warrants to the
 licensee that it is not a competitor of Gaussian, Inc. and that
 it will not use this program in any manner prohibited above.
 ---------------------------------------------------------------
  

 Cite this work as:
 Gaussian 16, Revision C.01,
 M. J. Frisch, G. W. Trucks, H. B. Schlegel, G. E. Scuseria, 
 M. A. Robb, J. R. Cheeseman, G. Scalmani, V. Barone, 
 G. A. Petersson, H. Nakatsuji, X. Li, M. Caricato, A. V. Marenich, 
 J. Bloino, B. G. Janesko, R. Gomperts, B. Mennucci, H. P. Hratchian, 
 J. V. Ortiz, A. F. Izmaylov, J. L. Sonnenberg, D. Williams-Young, 
 F. Ding, F. Lipparini, F. Egidi, J. Goings, B. Peng, A. Petrone, 
 T. Henderson, D. Ranasinghe, V. G. Zakrzewski, J. Gao, N. Rega, 
 G. Zheng, W. Liang, M. Hada, M. Ehara, K. Toyota, R. Fukuda, 
 J. Hasegawa, M. Ishida, T. Nakajima, Y. Honda, O. Kitao, H. Nakai, 
 T. Vreven, K. Throssell, J. A. Montgomery, Jr., J. E. Peralta, 
 F. Ogliaro, M. J. Bearpark, J. J. Heyd, E. N. Brothers, K. N. Kudin, 
 V. N. Staroverov, T. A. Keith, R. Kobayashi, J. Normand, 
 K. Raghavachari, A. P. Rendell, J. C. Burant, S. S. Iyengar, 
 J. Tomasi, M. Cossi, J. M. Millam, M. Klene, C. Adamo, R. Cammi, 
 J. W. Ochterski, R. L. Martin, K. Morokuma, O. Farkas, 
 J. B. Foresman, and D. J. Fox, Gaussian, Inc., Wallingford CT, 2019.
 
 ******************************************
 Gaussian 16:  ES64L-G16RevC.01  3-Jul-2019
                19-Jan-2021 
 ******************************************
 %chk=tct_Best_geom_CCSDT_aug_cc-pVTZ.chk
 %nprocshared=64
 Will use up to   64 processors via shared memory.
 %mem=100GB
 ----------------------
 #p ccsd(t) aug-cc-pvtz
 ----------------------
 1/38=1,172=1/1;
 2/12=2,17=6,18=5,40=1/2;
 3/5=16,6=1,7=10,11=9,25=1,30=1/1,2,3;
 4//1;
 5/5=2,38=5/2;
 8/6=4,9=120000,10=1/1,4;
 9/5=7,14=2/13;
 6/7=2,8=2,9=2,10=2/1;
 99/5=1,9=1/99;
 Leave Link    1 at Tue Jan 19 00:50:36 2021, MaxMem= 13421772800 cpu:               2.3 elap:               0.0
 (Enter /home/share/software/programs/Gaussian/g16/l101.exe)
 --------------------------
 start best geom PCCP paper
 --------------------------
 Symbolic Z-matrix:
 Charge =  0 Multiplicity = 1
 C
 O                    1    B1
 O                    1    B2       2    A1
 H                    2    B3       1    A2       3    D1       0
 C                    1    B4       3    A3       2    D2       0
 N                    5    B5       1    A4       3    D3       0
 H                    5    B6       1    A5       3    D4       0
 H                    5    B7       1    A6       3    D5       0
 H                    6    B8       5    A7       1    D6       0
 H                    6    B9       5    A8       1    D7       0
       Variables:
  B1                    1.34824                  
  B2                    1.20339                  
  B3                    0.96562                  
  B4                    1.51736                  
  B5                    1.44458                  
  B6                    1.0899                   
  B7                    1.0899                   
  B8                    1.00975                  
  B9                    1.00975                  
  A1                  122.72896                  
  A2                  106.37597                  
  A3                  123.80161                  
  A4                  118.62999                  
  A5                  105.95621                  
  A6                  105.95621                  
  A7                  111.34671                  
  A8                  111.34671                  
  D1                    0.                       
  D2                  180.                       
  D3                  180.                       
  D4                   56.19793                  
  D5                  -56.19793                  
  D6                   59.71795                  
  D7                  -59.71795                  
 
 ITRead=  0  0  0  0  0  0  0  0  0  0
 MicOpt= -1 -1 -1 -1 -1 -1 -1 -1 -1 -1
 NAtoms=     10 NQM=       10 NQMF=       0 NMMI=      0 NMMIF=      0
                NMic=       0 NMicF=      0.
                    Isotopes and Nuclear Properties:
 (Nuclear quadrupole moments (NQMom) in fm**2, nuclear magnetic moments (NMagM)
  in nuclear magnetons)

  Atom         1           2           3           4           5           6           7           8           9          10
 IAtWgt=          12          16          16           1          12          14           1           1           1           1
 AtmWgt=  12.0000000  15.9949146  15.9949146   1.0078250  12.0000000  14.0030740   1.0078250   1.0078250   1.0078250   1.0078250
 NucSpn=           0           0           0           1           0           2           1           1           1           1
 AtZEff=  -0.0000000  -0.0000000  -0.0000000  -0.0000000  -0.0000000  -0.0000000  -0.0000000  -0.0000000  -0.0000000  -0.0000000
 NQMom=    0.0000000   0.0000000   0.0000000   0.0000000   0.0000000   2.0440000   0.0000000   0.0000000   0.0000000   0.0000000
 NMagM=    0.0000000   0.0000000   0.0000000   2.7928460   0.0000000   0.4037610   2.7928460   2.7928460   2.7928460   2.7928460
 AtZNuc=   6.0000000   8.0000000   8.0000000   1.0000000   6.0000000   7.0000000   1.0000000   1.0000000   1.0000000   1.0000000
 Leave Link  101 at Tue Jan 19 00:50:36 2021, MaxMem= 13421772800 cpu:               7.9 elap:               0.2
 (Enter /home/share/software/programs/Gaussian/g16/l202.exe)
                          Input orientation:                          
 ---------------------------------------------------------------------
 Center     Atomic      Atomic             Coordinates (Angstroms)
 Number     Number       Type             X           Y           Z
 ---------------------------------------------------------------------
      1          6           0        0.000000    0.000000    0.000000
      2          8           0        0.000000    0.000000    1.348240
      3          8           0        1.012337    0.000000   -0.650632
      4          1           0        0.926448    0.000000    1.620486
      5          6           0       -1.391833    0.000000   -0.604303
      6          7           0       -2.531719    0.000000    0.283092
      7          1           0       -1.434486   -0.870775   -1.258379
      8          1           0       -1.434486    0.870775   -1.258379
      9          1           0       -2.530429    0.812151    0.883095
     10          1           0       -2.530429   -0.812151    0.883095
 ---------------------------------------------------------------------
                    Distance matrix (angstroms):
                    1          2          3          4          5
     1  C    0.000000
     2  O    1.348240   0.000000
     3  O    1.203390   2.240606   0.000000
     4  H    1.866623   0.965621   2.272741   0.000000
     5  C    1.517360   2.397837   2.404616   3.213116   0.000000
     6  N    2.547497   2.746660   3.664993   3.707768   1.444580
     7  H    2.097502   3.100074   2.667311   3.823627   1.089900
     8  H    2.097502   3.100074   2.667311   3.823627   1.089900
     9  H    2.800449   2.697966   3.945009   3.626752   2.041653
    10  H    2.800449   2.697966   3.945009   3.626752   2.041653
                    6          7          8          9         10
     6  N    0.000000
     7  H    2.082859   0.000000
     8  H    2.082859   1.741549   0.000000
     9  H    1.009750   2.935854   2.406333   0.000000
    10  H    1.009750   2.406333   2.935854   1.624303   0.000000
 Stoichiometry    C2H5NO2
 Framework group  CS[SG(C2HNO2),X(H4)]
 Deg. of freedom    15
 Full point group                 CS      NOp   2
 Largest Abelian subgroup         CS      NOp   2
 Largest concise Abelian subgroup CS      NOp   2
                         Standard orientation:                         
 ---------------------------------------------------------------------
 Center     Atomic      Atomic             Coordinates (Angstroms)
 Number     Number       Type             X           Y           Z
 ---------------------------------------------------------------------
      1          6           0        0.000000    0.635900    0.000000
      2          8           0       -1.323949    0.381124    0.000000
      3          8           0        0.447609    1.752947    0.000000
      4          1           0       -1.766360    1.239435    0.000000
      5          6           0        0.856429   -0.616662   -0.000000
      6          7           0        0.200424   -1.903701   -0.000000
      7          1           0        1.506780   -0.534947    0.870775
      8          1           0        1.506780   -0.534947   -0.870775
      9          1           0       -0.389012   -2.015816   -0.812151
     10          1           0       -0.389012   -2.015816    0.812151
 ---------------------------------------------------------------------
 Rotational constants (GHZ):          10.0492564           4.0169293           2.9660702
 Leave Link  202 at Tue Jan 19 00:50:36 2021, MaxMem= 13421772800 cpu:               3.0 elap:               0.1
 (Enter /home/share/software/programs/Gaussian/g16/l301.exe)
 Standard basis: Aug-CC-pVTZ (5D, 7F)
 Ernie: Thresh=  0.10000D-02 Tol=  0.10000D-05 Strict=F.
 Ernie:  15 primitive shells out of 205 were deleted.
 There are   253 symmetry adapted cartesian basis functions of A'  symmetry.
 There are   147 symmetry adapted cartesian basis functions of A"  symmetry.
 There are   212 symmetry adapted basis functions of A'  symmetry.
 There are   133 symmetry adapted basis functions of A"  symmetry.
   345 basis functions,   495 primitive gaussians,   400 cartesian basis functions
    20 alpha electrons       20 beta electrons
       nuclear repulsion energy       180.0072559301 Hartrees.
 IExCor=    0 DFT=F Ex=HF Corr=None ExCW=0 ScaHFX=  1.000000
 ScaDFX=  1.000000  1.000000  1.000000  1.000000 ScalE2=  1.000000  1.000000
 IRadAn=      5 IRanWt=     -1 IRanGd=            0 ICorTp=0 IEmpDi=  4
 NAtoms=   10 NActive=   10 NUniq=    8 SFac= 1.56D+00 NAtFMM=   60 NAOKFM=F Big=F
 Integral buffers will be    131072 words long.
 Raffenetti 1 integral format.
 Two-electron integral symmetry is turned on.
 Leave Link  301 at Tue Jan 19 00:50:36 2021, MaxMem= 13421772800 cpu:               4.5 elap:               0.1
 (Enter /home/share/software/programs/Gaussian/g16/l302.exe)
 NPDir=0 NMtPBC=     1 NCelOv=     1 NCel=       1 NClECP=     1 NCelD=      1
         NCelK=      1 NCelE2=     1 NClLst=     1 CellRange=     0.0.
 One-electron integrals computed using PRISM.
 One-electron integral symmetry used in STVInt
 NBasis=   345 RedAO= T EigKep=  1.55D-05  NBF=   212   133
 NBsUse=   345 1.00D-06 EigRej= -1.00D+00 NBFU=   212   133
 Leave Link  302 at Tue Jan 19 00:50:37 2021, MaxMem= 13421772800 cpu:              21.1 elap:               0.4
 (Enter /home/share/software/programs/Gaussian/g16/l303.exe)
 DipDrv:  MaxL=1.
 Leave Link  303 at Tue Jan 19 00:50:37 2021, MaxMem= 13421772800 cpu:               5.6 elap:               0.1
 (Enter /home/share/software/programs/Gaussian/g16/l401.exe)
 ExpMin= 2.53D-02 ExpMax= 1.53D+04 ExpMxC= 5.22D+02 IAcc=3 IRadAn=         5 AccDes= 0.00D+00
 Harris functional with IExCor=  205 and IRadAn=       5 diagonalized for initial guess.
 HarFok:  IExCor=  205 AccDes= 0.00D+00 IRadAn=         5 IDoV= 1 UseB2=F ITyADJ=14
 ICtDFT=  3500011 ScaDFX=  1.000000  1.000000  1.000000  1.000000
 FoFCou: FMM=F IPFlag=           0 FMFlag=      100000 FMFlg1=           0
         NFxFlg=           0 DoJE=T BraDBF=F KetDBF=T FulRan=T
         wScrn=  0.000000 ICntrl=       500 IOpCl=  0 I1Cent=   200000004 NGrid=           0
         NMat0=    1 NMatS0=      1 NMatT0=    0 NMatD0=    1 NMtDS0=    0 NMtDT0=    0
 Petite list used in FoFCou.
 Harris En= -283.228279617216    
 JPrj=0 DoOrth=F DoCkMO=F.
 Initial guess orbital symmetries:
       Occupied  (A') (A') (A') (A') (A') (A') (A') (A') (A') (A')
                 (A") (A') (A') (A') (A") (A') (A") (A") (A') (A')
       Virtual   (A") (A') (A') (A') (A") (A') (A") (A') (A') (A")
                 (A') (A') (A') (A") (A') (A') (A") (A') (A') (A")
                 (A") (A') (A") (A') (A') (A') (A") (A') (A') (A')
                 (A') (A') (A") (A") (A') (A') (A") (A') (A') (A')
                 (A") (A') (A") (A") (A') (A") (A') (A") (A') (A')
                 (A') (A') (A") (A") (A') (A") (A') (A') (A') (A')
                 (A") (A') (A') (A") (A') (A") (A') (A') (A') (A')
                 (A") (A') (A") (A') (A") (A') (A") (A") (A') (A")
                 (A') (A') (A") (A') (A") (A') (A') (A") (A') (A")
                 (A') (A") (A') (A') (A") (A') (A") (A") (A') (A')
                 (A") (A') (A') (A") (A") (A') (A') (A') (A') (A')
                 (A") (A") (A') (A') (A") (A") (A") (A') (A") (A')
                 (A') (A") (A') (A') (A") (A') (A") (A') (A') (A')
                 (A") (A') (A') (A") (A") (A') (A') (A") (A') (A')
                 (A") (A") (A') (A") (A') (A') (A") (A') (A') (A")
                 (A') (A") (A') (A') (A") (A') (A") (A") (A') (A')
                 (A") (A') (A') (A") (A') (A') (A") (A') (A') (A")
                 (A') (A') (A") (A') (A") (A') (A") (A') (A") (A')
                 (A') (A") (A') (A") (A') (A') (A") (A') (A') (A")
                 (A') (A") (A') (A") (A") (A') (A') (A') (A') (A")
                 (A') (A') (A") (A') (A') (A") (A") (A') (A") (A')
                 (A') (A") (A') (A') (A") (A") (A") (A') (A') (A")
                 (A') (A") (A') (A') (A") (A') (A") (A') (A") (A")
                 (A") (A') (A') (A") (A') (A') (A") (A') (A") (A")
                 (A') (A') (A") (A') (A') (A') (A") (A') (A") (A')
                 (A') (A") (A') (A') (A') (A") (A') (A") (A') (A")
                 (A') (A") (A") (A') (A') (A") (A') (A") (A') (A")
                 (A') (A") (A') (A') (A') (A') (A') (A") (A") (A')
                 (A") (A') (A') (A') (A') (A") (A') (A') (A") (A")
                 (A') (A') (A') (A") (A") (A") (A') (A') (A') (A")
                 (A") (A') (A") (A') (A") (A') (A") (A") (A') (A')
                 (A") (A') (A") (A') (A') (A') (A") (A') (A') (A')
                 (A') (A') (A') (A') (A')
 The electronic state of the initial guess is 1-A'.
 Leave Link  401 at Tue Jan 19 00:50:37 2021, MaxMem= 13421772800 cpu:              31.5 elap:               0.6
 (Enter /home/share/software/programs/Gaussian/g16/l502.exe)
 Keep R1 ints in memory in symmetry-blocked form, NReq=2674621453.
 FoFCou: FMM=F IPFlag=           0 FMFlag=           0 FMFlg1=           0
         NFxFlg=           0 DoJE=F BraDBF=F KetDBF=F FulRan=T
         wScrn=  0.000000 ICntrl=       600 IOpCl=  0 I1Cent=           0 NGrid=           0
         NMat0=    1 NMatS0=  59685 NMatT0=    0 NMatD0=    1 NMtDS0=    0 NMtDT0=    0
 Petite list used in FoFCou.
 Closed shell SCF:
 Using DIIS extrapolation, IDIIS=  1040.
 NGot= 13421772800 LenX= 12527983856 LenY= 12527823415
 Requested convergence on RMS density matrix=1.00D-08 within 128 cycles.
 Requested convergence on MAX density matrix=1.00D-06.
 Requested convergence on             energy=1.00D-06.
 No special actions if energy rises.

 Cycle   1  Pass 1  IDiag  1:
 E= -282.710327955625    
 DIIS: error= 2.88D-02 at cycle   1 NSaved=   1.
 NSaved= 1 IEnMin= 1 EnMin= -282.710327955625     IErMin= 1 ErrMin= 2.88D-02
 ErrMax= 2.88D-02  0.00D+00 EMaxC= 1.00D-01 BMatC= 5.95D-01 BMatP= 5.95D-01
 IDIUse=3 WtCom= 7.12D-01 WtEn= 2.88D-01
 Coeff-Com:  0.100D+01
 Coeff-En:   0.100D+01
 Coeff:      0.100D+01
 Gap=     0.387 Goal=   None    Shift=    0.000
 GapD=    0.387 DampG=1.000 DampE=0.500 DampFc=0.5000 IDamp=-1.
 Damping current iteration by 5.00D-01
 RMSDP=1.55D-03 MaxDP=7.43D-02              OVMax= 1.23D-01

 Cycle   2  Pass 1  IDiag  1:
 E= -282.835342212237     Delta-E=       -0.125014256612 Rises=F Damp=T
 DIIS: error= 1.39D-02 at cycle   2 NSaved=   2.
 NSaved= 2 IEnMin= 2 EnMin= -282.835342212237     IErMin= 2 ErrMin= 1.39D-02
 ErrMax= 1.39D-02  0.00D+00 EMaxC= 1.00D-01 BMatC= 1.22D-01 BMatP= 5.95D-01
 IDIUse=3 WtCom= 8.61D-01 WtEn= 1.39D-01
 Coeff-Com: -0.587D+00 0.159D+01
 Coeff-En:   0.000D+00 0.100D+01
 Coeff:     -0.506D+00 0.151D+01
 Gap=     0.445 Goal=   None    Shift=    0.000
 RMSDP=8.72D-04 MaxDP=5.38D-02 DE=-1.25D-01 OVMax= 5.00D-02

 Cycle   3  Pass 1  IDiag  1:
 E= -282.945695585325     Delta-E=       -0.110353373088 Rises=F Damp=F
 DIIS: error= 4.14D-03 at cycle   3 NSaved=   3.
 NSaved= 3 IEnMin= 3 EnMin= -282.945695585325     IErMin= 3 ErrMin= 4.14D-03
 ErrMax= 4.14D-03  0.00D+00 EMaxC= 1.00D-01 BMatC= 5.40D-03 BMatP= 1.22D-01
 IDIUse=3 WtCom= 9.59D-01 WtEn= 4.14D-02
 Coeff-Com: -0.184D+00 0.326D+00 0.858D+00
 Coeff-En:   0.000D+00 0.000D+00 0.100D+01
 Coeff:     -0.177D+00 0.313D+00 0.864D+00
 Gap=     0.433 Goal=   None    Shift=    0.000
 RMSDP=1.60D-04 MaxDP=1.66D-02 DE=-1.10D-01 OVMax= 2.16D-02

 Cycle   4  Pass 1  IDiag  1:
 E= -282.949185100554     Delta-E=       -0.003489515230 Rises=F Damp=F
 DIIS: error= 9.08D-04 at cycle   4 NSaved=   4.
 NSaved= 4 IEnMin= 4 EnMin= -282.949185100554     IErMin= 4 ErrMin= 9.08D-04
 ErrMax= 9.08D-04  0.00D+00 EMaxC= 1.00D-01 BMatC= 3.65D-04 BMatP= 5.40D-03
 IDIUse=3 WtCom= 9.91D-01 WtEn= 9.08D-03
 Coeff-Com: -0.419D-01 0.628D-01 0.275D+00 0.704D+00
 Coeff-En:   0.000D+00 0.000D+00 0.000D+00 0.100D+01
 Coeff:     -0.415D-01 0.623D-01 0.272D+00 0.707D+00
 Gap=     0.429 Goal=   None    Shift=    0.000
 RMSDP=3.68D-05 MaxDP=1.36D-03 DE=-3.49D-03 OVMax= 4.31D-03

 Cycle   5  Pass 1  IDiag  1:
 E= -282.949499510634     Delta-E=       -0.000314410080 Rises=F Damp=F
 DIIS: error= 3.81D-04 at cycle   5 NSaved=   5.
 NSaved= 5 IEnMin= 5 EnMin= -282.949499510634     IErMin= 5 ErrMin= 3.81D-04
 ErrMax= 3.81D-04  0.00D+00 EMaxC= 1.00D-01 BMatC= 2.59D-05 BMatP= 3.65D-04
 IDIUse=3 WtCom= 9.96D-01 WtEn= 3.81D-03
 Coeff-Com:  0.176D-01-0.316D-01-0.859D-01 0.315D-01 0.107D+01
 Coeff-En:   0.000D+00 0.000D+00 0.000D+00 0.000D+00 0.100D+01
 Coeff:      0.175D-01-0.315D-01-0.856D-01 0.314D-01 0.107D+01
 Gap=     0.430 Goal=   None    Shift=    0.000
 RMSDP=2.05D-05 MaxDP=1.14D-03 DE=-3.14D-04 OVMax= 3.58D-03

 Cycle   6  Pass 1  IDiag  1:
 E= -282.949548956394     Delta-E=       -0.000049445760 Rises=F Damp=F
 DIIS: error= 8.76D-05 at cycle   6 NSaved=   6.
 NSaved= 6 IEnMin= 6 EnMin= -282.949548956394     IErMin= 6 ErrMin= 8.76D-05
 ErrMax= 8.76D-05  0.00D+00 EMaxC= 1.00D-01 BMatC= 4.17D-06 BMatP= 2.59D-05
 IDIUse=1 WtCom= 1.00D+00 WtEn= 0.00D+00
 Coeff-Com:  0.880D-02-0.146D-01-0.503D-01-0.808D-01 0.238D+00 0.898D+00
 Coeff:      0.880D-02-0.146D-01-0.503D-01-0.808D-01 0.238D+00 0.898D+00
 Gap=     0.430 Goal=   None    Shift=    0.000
 RMSDP=8.90D-06 MaxDP=6.00D-04 DE=-4.94D-05 OVMax= 1.02D-03

 Cycle   7  Pass 1  IDiag  1:
 E= -282.949556283428     Delta-E=       -0.000007327034 Rises=F Damp=F
 DIIS: error= 4.63D-05 at cycle   7 NSaved=   7.
 NSaved= 7 IEnMin= 7 EnMin= -282.949556283428     IErMin= 7 ErrMin= 4.63D-05
 ErrMax= 4.63D-05  0.00D+00 EMaxC= 1.00D-01 BMatC= 4.41D-07 BMatP= 4.17D-06
 IDIUse=1 WtCom= 1.00D+00 WtEn= 0.00D+00
 Coeff-Com: -0.180D-02 0.327D-02 0.112D-01-0.105D-01-0.112D+00-0.506D-02
 Coeff-Com:  0.112D+01
 Coeff:     -0.180D-02 0.327D-02 0.112D-01-0.105D-01-0.112D+00-0.506D-02
 Coeff:      0.112D+01
 Gap=     0.431 Goal=   None    Shift=    0.000
 RMSDP=3.32D-06 MaxDP=1.34D-04 DE=-7.33D-06 OVMax= 6.64D-04

 Cycle   8  Pass 1  IDiag  1:
 E= -282.949557519347     Delta-E=       -0.000001235919 Rises=F Damp=F
 DIIS: error= 1.64D-05 at cycle   8 NSaved=   8.
 NSaved= 8 IEnMin= 8 EnMin= -282.949557519347     IErMin= 8 ErrMin= 1.64D-05
 ErrMax= 1.64D-05  0.00D+00 EMaxC= 1.00D-01 BMatC= 7.18D-08 BMatP= 4.41D-07
 IDIUse=1 WtCom= 1.00D+00 WtEn= 0.00D+00
 Coeff-Com: -0.113D-02 0.183D-02 0.715D-02 0.805D-02-0.231D-01-0.123D+00
 Coeff-Com: -0.933D-01 0.122D+01
 Coeff:     -0.113D-02 0.183D-02 0.715D-02 0.805D-02-0.231D-01-0.123D+00
 Coeff:     -0.933D-01 0.122D+01
 Gap=     0.431 Goal=   None    Shift=    0.000
 RMSDP=1.46D-06 MaxDP=6.69D-05 DE=-1.24D-06 OVMax= 3.02D-04

 Cycle   9  Pass 1  IDiag  1:
 E= -282.949557732257     Delta-E=       -0.000000212910 Rises=F Damp=F
 DIIS: error= 5.17D-06 at cycle   9 NSaved=   9.
 NSaved= 9 IEnMin= 9 EnMin= -282.949557732257     IErMin= 9 ErrMin= 5.17D-06
 ErrMax= 5.17D-06  0.00D+00 EMaxC= 1.00D-01 BMatC= 8.60D-09 BMatP= 7.18D-08
 IDIUse=1 WtCom= 1.00D+00 WtEn= 0.00D+00
 Coeff-Com:  0.547D-04-0.136D-03-0.196D-03 0.146D-02 0.120D-01-0.168D-01
 Coeff-Com: -0.142D+00 0.144D+00 0.100D+01
 Coeff:      0.547D-04-0.136D-03-0.196D-03 0.146D-02 0.120D-01-0.168D-01
 Coeff:     -0.142D+00 0.144D+00 0.100D+01
 Gap=     0.431 Goal=   None    Shift=    0.000
 RMSDP=3.62D-07 MaxDP=1.96D-05 DE=-2.13D-07 OVMax= 8.48D-05

 Cycle  10  Pass 1  IDiag  1:
 E= -282.949557752260     Delta-E=       -0.000000020004 Rises=F Damp=F
 DIIS: error= 1.86D-06 at cycle  10 NSaved=  10.
 NSaved=10 IEnMin=10 EnMin= -282.949557752260     IErMin=10 ErrMin= 1.86D-06
 ErrMax= 1.86D-06  0.00D+00 EMaxC= 1.00D-01 BMatC= 9.95D-10 BMatP= 8.60D-09
 IDIUse=1 WtCom= 1.00D+00 WtEn= 0.00D+00
 Coeff-Com:  0.178D-03-0.297D-03-0.107D-02-0.151D-02 0.499D-02 0.166D-01
 Coeff-Com:  0.777D-02-0.176D+00 0.623D-01 0.109D+01
 Coeff:      0.178D-03-0.297D-03-0.107D-02-0.151D-02 0.499D-02 0.166D-01
 Coeff:      0.777D-02-0.176D+00 0.623D-01 0.109D+01
 Gap=     0.431 Goal=   None    Shift=    0.000
 RMSDP=1.48D-07 MaxDP=7.71D-06 DE=-2.00D-08 OVMax= 2.62D-05

 Cycle  11  Pass 1  IDiag  1:
 E= -282.949557754541     Delta-E=       -0.000000002281 Rises=F Damp=F
 DIIS: error= 3.35D-07 at cycle  11 NSaved=  11.
 NSaved=11 IEnMin=11 EnMin= -282.949557754541     IErMin=11 ErrMin= 3.35D-07
 ErrMax= 3.35D-07  0.00D+00 EMaxC= 1.00D-01 BMatC= 5.76D-11 BMatP= 9.95D-10
 IDIUse=1 WtCom= 1.00D+00 WtEn= 0.00D+00
 Coeff-Com: -0.669D-05 0.136D-04 0.714D-04-0.501D-04-0.872D-03-0.786D-04
 Coeff-Com:  0.883D-02 0.446D-02-0.861D-01-0.771D-01 0.115D+01
 Coeff:     -0.669D-05 0.136D-04 0.714D-04-0.501D-04-0.872D-03-0.786D-04
 Coeff:      0.883D-02 0.446D-02-0.861D-01-0.771D-01 0.115D+01
 Gap=     0.431 Goal=   None    Shift=    0.000
 RMSDP=3.93D-08 MaxDP=1.79D-06 DE=-2.28D-09 OVMax= 5.25D-06

 Cycle  12  Pass 1  IDiag  1:
 E= -282.949557754666     Delta-E=       -0.000000000125 Rises=F Damp=F
 DIIS: error= 1.05D-07 at cycle  12 NSaved=  12.
 NSaved=12 IEnMin=12 EnMin= -282.949557754666     IErMin=12 ErrMin= 1.05D-07
 ErrMax= 1.05D-07  0.00D+00 EMaxC= 1.00D-01 BMatC= 3.83D-12 BMatP= 5.76D-11
 IDIUse=1 WtCom= 1.00D+00 WtEn= 0.00D+00
 Coeff-Com: -0.105D-04 0.171D-04 0.706D-04 0.888D-04-0.263D-03-0.116D-02
 Coeff-Com: -0.153D-02 0.140D-01-0.743D-03-0.755D-01-0.568D-01 0.112D+01
 Coeff:     -0.105D-04 0.171D-04 0.706D-04 0.888D-04-0.263D-03-0.116D-02
 Coeff:     -0.153D-02 0.140D-01-0.743D-03-0.755D-01-0.568D-01 0.112D+01
 Gap=     0.431 Goal=   None    Shift=    0.000
 RMSDP=1.11D-08 MaxDP=6.06D-07 DE=-1.25D-10 OVMax= 1.16D-06

 Cycle  13  Pass 1  IDiag  1:
 E= -282.949557754686     Delta-E=       -0.000000000019 Rises=F Damp=F
 DIIS: error= 3.50D-08 at cycle  13 NSaved=  13.
 NSaved=13 IEnMin=13 EnMin= -282.949557754686     IErMin=13 ErrMin= 3.50D-08
 ErrMax= 3.50D-08  0.00D+00 EMaxC= 1.00D-01 BMatC= 3.42D-13 BMatP= 3.83D-12
 IDIUse=1 WtCom= 1.00D+00 WtEn= 0.00D+00
 Coeff-Com:  0.681D-06-0.142D-05-0.497D-05 0.924D-06 0.806D-04 0.914D-05
 Coeff-Com: -0.957D-03 0.183D-03 0.736D-02 0.340D-02-0.103D+00 0.628D-01
 Coeff-Com:  0.103D+01
 Coeff:      0.681D-06-0.142D-05-0.497D-05 0.924D-06 0.806D-04 0.914D-05
 Coeff:     -0.957D-03 0.183D-03 0.736D-02 0.340D-02-0.103D+00 0.628D-01
 Coeff:      0.103D+01
 Gap=     0.431 Goal=   None    Shift=    0.000
 RMSDP=3.16D-09 MaxDP=1.42D-07 DE=-1.94D-11 OVMax= 2.80D-07

 SCF Done:  E(RHF) =  -282.949557755     A.U. after   13 cycles
            NFock= 13  Conv=0.32D-08     -V/T= 2.0014
 KE= 2.825403958349D+02 PE=-1.026247281545D+03 EE= 2.807500720250D+02
 Leave Link  502 at Tue Jan 19 00:50:59 2021, MaxMem= 13421772800 cpu:             445.7 elap:              21.5
 (Enter /home/share/software/programs/Gaussian/g16/l801.exe)
 Windowed orbitals will be sorted by symmetry type.
 ExpMin= 2.53D-02 ExpMax= 1.53D+04 ExpMxC= 5.22D+02 IAcc=3 IRadAn=         5 AccDes= 0.00D+00
 HarFok:  IExCor=  205 AccDes= 0.00D+00 IRadAn=         5 IDoV=-2 UseB2=F ITyADJ=14
 ICtDFT= 12500011 ScaDFX=  1.000000  1.000000  1.000000  1.000000
 Largest valence mixing into a core orbital is  2.05D-04
 Largest core mixing into a valence orbital is  3.06D-05
 Range of M.O.s used for correlation:     6   345
 NBasis=   345 NAE=    20 NBE=    20 NFC=     5 NFV=     0
 NROrb=    340 NOA=    15 NOB=    15 NVA=   325 NVB=   325

 **** Warning!!: The largest alpha MO coefficient is  0.49690468D+02

 Leave Link  801 at Tue Jan 19 00:51:00 2021, MaxMem= 13421772800 cpu:              12.8 elap:               0.3
 (Enter /home/share/software/programs/Gaussian/g16/l804.exe)
 Closed-shell transformation, MDV= 13421772800 ITran=4 ISComp=2.
 Unit  1 TFree=       3936917 TCopy=       1947006.
 Semi-Direct transformation.
 ModeAB=           4 MOrb=            15 LenV=   13418841729
 LASXX=    143860024 LTotXX=   143860024 LenRXX=   289068549
 LTotAB=   145208525 MaxLAS=   322024200 LenRXY=           0
 NonZer=   432928573 LenScr=   649592832 LnRSAI=   322024200
 LnScr1=   483655680 LExtra=           0 Total=   1744341261
 MaxDsk=          -1 SrtSym=           T ITran=            4
 DoSDTr:  NPSUse= 64
 JobTyp=0 Pass  1:  I=   1 to  15.
 (rs|ai) integrals will be sorted in core.
 Complete sort for first half transformation.
 First half transformation complete.
 Begin second half transformation for I=  10.
 Complete sort for second half transformation.
 Second half transformation complete.
 Spin components of T(2) and E(2):
     alpha-alpha T2 =       0.3625109204D-01 E2=     -0.1288841535D+00
     alpha-beta  T2 =       0.2014885304D+00 E2=     -0.7713529820D+00
     beta-beta   T2 =       0.3625109204D-01 E2=     -0.1288841535D+00
 ANorm=    0.1128711971D+01
 E2 =    -0.1029121289D+01 EUMP2 =    -0.28397867904364D+03
 Leave Link  804 at Tue Jan 19 00:52:04 2021, MaxMem= 13421772800 cpu:            4119.9 elap:              64.7
 (Enter /home/share/software/programs/Gaussian/g16/l913.exe)
 CIDS:  MDV= 13421772800.
 Frozen-core window:  NFC=   5 NFV=   0.
 IFCWin=0 IBDFC=1 NFBD=     0     0 NFCmp=     0     0 NFFFC=     0     0
 Using DD3R+UMP44R for 1st iteration.
 Using DD4RQ for 2nd and later iterations.
 Keep R2 and R3 ints in memory in symmetry-blocked form, NReq=2680086220.
 FoFCou: FMM=F IPFlag=           0 FMFlag=           0 FMFlg1=           0
         NFxFlg=           0 DoJE=F BraDBF=F KetDBF=F FulRan=T
         wScrn=  0.000000 ICntrl=       600 IOpCl=  0 I1Cent=           0 NGrid=           0
         NMat0=    1 NMatS0=  59685 NMatT0=    0 NMatD0=    1 NMtDS0=    0 NMtDT0=    0
 Petite list used in FoFCou.
 CIDS: In Core Option IDoMem=           1.
 CCSD(T)
 =======
 Iterations=  50 Convergence= 0.100D-06
 Produce multiple copies of IABC intergrals
 Iteration Nr.   1
 **********************
 DD1Dir will call FoFMem   1 times, MxPair=       240
 NAB=   120 NAA=     0 NBB=     0.
 MP4(R+Q)=  0.22899745D-01
 Maximum subspace dimension=  5
 A-vector RMS=  1.8956562D-03 Max=  2.8593217D-02 conv= 1.00D-05.
 RLE energy=       -1.0159749118
 E3=       -0.10108765D-01        EUMP3=      -0.28398878781D+03
 E4(DQ)=    0.19874495D-02        UMP4(DQ)=   -0.28398680036D+03
 E4(SDQ)=  -0.93756752D-02        UMP4(SDQ)=  -0.28399816348D+03
 VARIATIONAL ENERGIES WITH THE FIRST-ORDER WAVEFUNCTION:
 DE(Corr)=  -1.0158051     E(Corr)=     -283.96536282    
 NORM(A)=   0.11281650D+01
 Iteration Nr.   2
 **********************
 DD1Dir will call FoFMem   1 times, MxPair=       240
 NAB=   120 NAA=     0 NBB=     0.
 A-vector RMS=  2.7664618D-04 Max=  6.8796765D-03 conv= 1.00D-05.
 RLE energy=       -1.0437288548
 DE(Corr)=  -1.0434850     E(CORR)=     -283.99304273     Delta=-2.77D-02
 NORM(A)=   0.11377043D+01
 Iteration Nr.   3
 **********************
 DD1Dir will call FoFMem   1 times, MxPair=       240
 NAB=   120 NAA=     0 NBB=     0.
 A-vector RMS=  3.6092976D-04 Max=  6.5677023D-03 conv= 1.00D-05.
 RLE energy=       -1.0452866963
 DE(Corr)=  -1.0428929     E(CORR)=     -283.99245064     Delta= 5.92D-04
 NORM(A)=   0.11402998D+01
 Iteration Nr.   4
 **********************
 DD1Dir will call FoFMem   1 times, MxPair=       240
 NAB=   120 NAA=     0 NBB=     0.
 A-vector RMS=  6.0387713D-05 Max=  9.8096000D-04 conv= 1.00D-05.
 RLE energy=       -1.0454564964
 DE(Corr)=  -1.0452658     E(CORR)=     -283.99482351     Delta=-2.37D-03
 NORM(A)=   0.11410967D+01
 Iteration Nr.   5
 **********************
 DD1Dir will call FoFMem   1 times, MxPair=       240
 NAB=   120 NAA=     0 NBB=     0.
 A-vector RMS=  3.8667593D-05 Max=  5.9311330D-04 conv= 1.00D-05.
 RLE energy=       -1.0455662587
 DE(Corr)=  -1.0455213     E(CORR)=     -283.99507910     Delta=-2.56D-04
 NORM(A)=   0.11413574D+01
 Iteration Nr.   6
 **********************
 DD1Dir will call FoFMem   1 times, MxPair=       240
 NAB=   120 NAA=     0 NBB=     0.
 A-vector RMS=  1.0841754D-05 Max=  1.9659480D-04 conv= 1.00D-05.
 RLE energy=       -1.0455548283
 DE(Corr)=  -1.0455453     E(CORR)=     -283.99510301     Delta=-2.39D-05
 NORM(A)=   0.11413914D+01
 Iteration Nr.   7
 **********************
 DD1Dir will call FoFMem   1 times, MxPair=       240
 NAB=   120 NAA=     0 NBB=     0.
 A-vector RMS=  5.3243505D-06 Max=  8.3490855D-05 conv= 1.00D-05.
 RLE energy=       -1.0455319190
 DE(Corr)=  -1.0455463     E(CORR)=     -283.99510405     Delta=-1.04D-06
 NORM(A)=   0.11413932D+01
 Iteration Nr.   8
 **********************
 DD1Dir will call FoFMem   1 times, MxPair=       240
 NAB=   120 NAA=     0 NBB=     0.
 A-vector RMS=  1.5149652D-06 Max=  2.3120818D-05 conv= 1.00D-05.
 RLE energy=       -1.0455440771
 DE(Corr)=  -1.0455452     E(CORR)=     -283.99510296     Delta= 1.08D-06
 NORM(A)=   0.11413983D+01
 Iteration Nr.   9
 **********************
 DD1Dir will call FoFMem   1 times, MxPair=       240
 NAB=   120 NAA=     0 NBB=     0.
 A-vector RMS=  6.5482328D-07 Max=  1.2124704D-05 conv= 1.00D-05.
 RLE energy=       -1.0455435833
 DE(Corr)=  -1.0455439     E(CORR)=     -283.99510167     Delta= 1.30D-06
 NORM(A)=   0.11413985D+01
 Iteration Nr.  10
 **********************
 DD1Dir will call FoFMem   1 times, MxPair=       240
 NAB=   120 NAA=     0 NBB=     0.
 A-vector RMS=  2.8545211D-07 Max=  3.4110321D-06 conv= 1.00D-05.
 RLE energy=       -1.0455446560
 DE(Corr)=  -1.0455448     E(CORR)=     -283.99510254     Delta=-8.75D-07
 NORM(A)=   0.11413991D+01
 Iteration Nr.  11
 **********************
 DD1Dir will call FoFMem   1 times, MxPair=       240
 NAB=   120 NAA=     0 NBB=     0.
 A-vector RMS=  1.2244139D-07 Max=  1.8064857D-06 conv= 1.00D-05.
 RLE energy=       -1.0455450603
 DE(Corr)=  -1.0455449     E(CORR)=     -283.99510265     Delta=-1.07D-07
 NORM(A)=   0.11413995D+01
 Iteration Nr.  12
 **********************
 DD1Dir will call FoFMem   1 times, MxPair=       240
 NAB=   120 NAA=     0 NBB=     0.
 A-vector RMS=  5.4398672D-08 Max=  1.0001324D-06 conv= 1.00D-05.
 RLE energy=       -1.0455452211
 DE(Corr)=  -1.0455452     E(CORR)=     -283.99510291     Delta=-2.65D-07
 NORM(A)=   0.11413997D+01
 Iteration Nr.  13
 **********************
 DD1Dir will call FoFMem   1 times, MxPair=       240
 NAB=   120 NAA=     0 NBB=     0.
 A-vector RMS=  2.8467053D-08 Max=  2.9460536D-07 conv= 1.00D-05.
 RLE energy=       -1.0455452410
 DE(Corr)=  -1.0455452     E(CORR)=     -283.99510296     Delta=-5.07D-08
 NORM(A)=   0.11413998D+01
 CI/CC converged in   13 iterations to DelEn=-5.07D-08 Conv= 1.00D-07 ErrA1= 2.85D-08 Conv= 1.00D-05
 Wavefunction amplitudes converged. E(Corr)=     -283.99510296    
 Largest amplitude= 4.00D-02
 IPart= 44 IA=   18   10.20% done.
 IPart= 22 IA=   36   20.41% done.
 IPart= 39 IA=   55   30.51% done.
 IPart= 10 IA=   75   40.41% done.
 IPart= 35 IA=   97   50.42% done.
 IPart= 31 IA=  121   60.28% done.
 IPart= 14 IA=  148   70.08% done.
 IPart= 11 IA=  181   80.17% done.
 IPart= 37 IA=  223   90.02% done.
 Time for triples=   158063.28 seconds.
 T4(CCSD)= -0.47021703D-01
 T5(CCSD)=  0.21350807D-02
 CCSD(T)= -0.28403998959D+03
 Discarding MO integrals.
 Leave Link  913 at Tue Jan 19 01:41:15 2021, MaxMem= 13421772800 cpu:          186659.5 elap:            2928.4
 (Enter /home/share/software/programs/Gaussian/g16/l601.exe)
 Copying SCF densities to generalized density rwf, IOpCl= 0 IROHF=0.

 **********************************************************************

            Population analysis using the SCF Density.

 **********************************************************************

 Orbital symmetries:
       Occupied  (A') (A') (A') (A') (A') (A') (A') (A') (A') (A')
                 (A') (A") (A') (A") (A') (A') (A") (A') (A") (A')
       Virtual   (A') (A') (A") (A') (A") (A') (A") (A') (A') (A')
                 (A') (A") (A') (A") (A') (A') (A') (A") (A") (A')
                 (A') (A") (A') (A") (A') (A') (A") (A') (A') (A')
                 (A") (A') (A") (A") (A') (A') (A') (A") (A') (A')
                 (A") (A') (A") (A') (A') (A") (A") (A') (A') (A")
                 (A') (A') (A") (A') (A") (A') (A') (A') (A') (A')
                 (A") (A') (A') (A") (A') (A") (A') (A') (A') (A")
                 (A') (A') (A") (A') (A") (A") (A') (A") (A') (A")
                 (A') (A") (A') (A") (A') (A") (A') (A') (A') (A")
                 (A") (A') (A') (A") (A') (A") (A') (A") (A') (A')
                 (A") (A') (A') (A") (A') (A") (A') (A') (A") (A')
                 (A") (A') (A') (A") (A") (A') (A") (A') (A') (A")
                 (A') (A") (A') (A") (A') (A") (A') (A') (A') (A')
                 (A') (A") (A') (A") (A") (A') (A') (A") (A") (A')
                 (A") (A') (A') (A") (A') (A') (A") (A') (A") (A')
                 (A") (A') (A') (A') (A') (A") (A") (A") (A') (A')
                 (A') (A") (A') (A") (A') (A") (A') (A') (A") (A')
                 (A') (A') (A") (A") (A') (A') (A") (A') (A") (A')
                 (A") (A') (A") (A') (A') (A") (A') (A') (A") (A')
                 (A') (A") (A") (A') (A") (A') (A') (A') (A") (A')
                 (A') (A") (A') (A') (A") (A') (A") (A') (A") (A')
                 (A") (A') (A') (A') (A") (A") (A") (A') (A") (A')
                 (A') (A") (A') (A') (A") (A") (A') (A") (A') (A")
                 (A") (A') (A") (A') (A') (A") (A') (A") (A') (A')
                 (A") (A") (A') (A') (A') (A') (A") (A") (A') (A')
                 (A') (A") (A') (A') (A") (A') (A') (A") (A') (A")
                 (A') (A") (A") (A') (A') (A") (A') (A") (A') (A")
                 (A') (A") (A') (A') (A') (A') (A") (A') (A") (A')
                 (A") (A') (A') (A') (A') (A") (A') (A') (A") (A')
                 (A") (A') (A') (A") (A") (A') (A") (A') (A') (A")
                 (A") (A') (A") (A") (A') (A') (A") (A') (A") (A')
                 (A") (A') (A") (A') (A") (A') (A') (A') (A') (A')
                 (A') (A') (A') (A') (A')
 The electronic state is 1-A'.
 Alpha  occ. eigenvalues --  -20.62239 -20.55220 -15.55694 -11.38813 -11.27894
 Alpha  occ. eigenvalues --   -1.47516  -1.36893  -1.20236  -0.97597  -0.83417
 Alpha  occ. eigenvalues --   -0.71152  -0.70139  -0.69551  -0.63253  -0.59931
 Alpha  occ. eigenvalues --   -0.58361  -0.54817  -0.48728  -0.48388  -0.40498
 Alpha virt. eigenvalues --    0.02556   0.03946   0.04099   0.04383   0.06607
 Alpha virt. eigenvalues --    0.08299   0.09584   0.09990   0.10272   0.12079
 Alpha virt. eigenvalues --    0.13510   0.14131   0.14883   0.15633   0.15983
 Alpha virt. eigenvalues --    0.16602   0.17403   0.18371   0.19063   0.21611
 Alpha virt. eigenvalues --    0.22557   0.22774   0.25063   0.25842   0.26018
 Alpha virt. eigenvalues --    0.27453   0.27546   0.29004   0.30514   0.31742
 Alpha virt. eigenvalues --    0.33445   0.34209   0.34217   0.36063   0.36739
 Alpha virt. eigenvalues --    0.37242   0.37916   0.37955   0.38876   0.40127
 Alpha virt. eigenvalues --    0.40968   0.41918   0.42581   0.44032   0.44707
 Alpha virt. eigenvalues --    0.45378   0.46211   0.47494   0.49114   0.49513
 Alpha virt. eigenvalues --    0.49638   0.51201   0.52326   0.54944   0.55096
 Alpha virt. eigenvalues --    0.56633   0.59594   0.60829   0.61766   0.62131
 Alpha virt. eigenvalues --    0.63422   0.67063   0.67947   0.68689   0.72451
 Alpha virt. eigenvalues --    0.72868   0.74483   0.76301   0.76975   0.78435
 Alpha virt. eigenvalues --    0.80439   0.81086   0.82043   0.82209   0.83812
 Alpha virt. eigenvalues --    0.84993   0.85095   0.85958   0.88803   0.89055
 Alpha virt. eigenvalues --    0.89502   0.92765   0.94188   0.94599   0.95284
 Alpha virt. eigenvalues --    0.96202   0.96309   0.98109   0.99744   1.01023
 Alpha virt. eigenvalues --    1.01726   1.01981   1.03599   1.05892   1.05986
 Alpha virt. eigenvalues --    1.07409   1.08448   1.10031   1.11585   1.12297
 Alpha virt. eigenvalues --    1.12648   1.13704   1.16969   1.20378   1.20665
 Alpha virt. eigenvalues --    1.21614   1.22391   1.24397   1.25173   1.27434
 Alpha virt. eigenvalues --    1.28430   1.28764   1.30527   1.31926   1.32388
 Alpha virt. eigenvalues --    1.35070   1.37655   1.40742   1.41900   1.42406
 Alpha virt. eigenvalues --    1.43009   1.44115   1.47280   1.49404   1.50306
 Alpha virt. eigenvalues --    1.52755   1.53014   1.54554   1.56009   1.58505
 Alpha virt. eigenvalues --    1.59977   1.63951   1.64639   1.64744   1.65849
 Alpha virt. eigenvalues --    1.68445   1.70586   1.72502   1.73439   1.74408
 Alpha virt. eigenvalues --    1.78005   1.78294   1.84221   1.84858   1.87226
 Alpha virt. eigenvalues --    1.90715   1.90911   1.91477   1.96400   1.97292
 Alpha virt. eigenvalues --    2.02337   2.03675   2.06202   2.07237   2.09553
 Alpha virt. eigenvalues --    2.11312   2.12933   2.18267   2.18342   2.22450
 Alpha virt. eigenvalues --    2.25308   2.26528   2.28425   2.34647   2.35719
 Alpha virt. eigenvalues --    2.36430   2.37493   2.40776   2.42778   2.44651
 Alpha virt. eigenvalues --    2.46687   2.47493   2.47787   2.50175   2.51617
 Alpha virt. eigenvalues --    2.55666   2.58985   2.61007   2.61866   2.62983
 Alpha virt. eigenvalues --    2.65928   2.67297   2.70683   2.73260   2.76365
 Alpha virt. eigenvalues --    2.81256   2.82418   2.85942   2.86475   2.89217
 Alpha virt. eigenvalues --    2.94526   2.96145   3.00746   3.01733   3.03236
 Alpha virt. eigenvalues --    3.06412   3.10782   3.26541   3.27576   3.30534
 Alpha virt. eigenvalues --    3.35634   3.42640   3.47374   3.53563   3.56165
 Alpha virt. eigenvalues --    3.58565   3.58712   3.59426   3.66920   3.70158
 Alpha virt. eigenvalues --    3.74266   3.74357   3.80871   3.84472   3.86054
 Alpha virt. eigenvalues --    3.89485   3.94636   3.95574   3.97591   3.99087
 Alpha virt. eigenvalues --    4.02824   4.03714   4.09081   4.12031   4.13626
 Alpha virt. eigenvalues --    4.18486   4.19242   4.24199   4.25535   4.27302
 Alpha virt. eigenvalues --    4.31215   4.32478   4.35341   4.36135   4.37214
 Alpha virt. eigenvalues --    4.37297   4.41991   4.47485   4.48635   4.49282
 Alpha virt. eigenvalues --    4.51481   4.53440   4.57122   4.61967   4.62717
 Alpha virt. eigenvalues --    4.72752   4.73710   4.78628   4.80995   4.81118
 Alpha virt. eigenvalues --    4.81885   4.86973   4.87456   4.91570   4.95267
 Alpha virt. eigenvalues --    4.96123   5.02057   5.04120   5.09891   5.10415
 Alpha virt. eigenvalues --    5.11027   5.11186   5.18548   5.22220   5.26311
 Alpha virt. eigenvalues --    5.27203   5.29711   5.35944   5.41625   5.45516
 Alpha virt. eigenvalues --    5.46055   5.51034   5.53792   5.63751   5.73324
 Alpha virt. eigenvalues --    5.75322   5.84010   5.85203   5.85748   5.95116
 Alpha virt. eigenvalues --    5.96854   6.02869   6.12050   6.15046   6.19919
 Alpha virt. eigenvalues --    6.24551   6.30064   6.44606   6.54937   6.60470
 Alpha virt. eigenvalues --    6.64764   6.66355   6.71211   6.77635   6.84202
 Alpha virt. eigenvalues --    6.84737   6.86068   6.90367   6.99466   7.01937
 Alpha virt. eigenvalues --    7.06450   7.16387   7.21305   7.26822   7.29518
 Alpha virt. eigenvalues --    7.32265   7.36828   7.37645   7.38625   7.54936
 Alpha virt. eigenvalues --    7.61578   7.61664   7.66024   7.71521   7.80140
 Alpha virt. eigenvalues --    7.88600   7.89493   8.03474   8.25501   8.60640
 Alpha virt. eigenvalues --   15.09913  16.05033  17.13245  17.94473  19.70290
          Condensed to atoms (all electrons):
               1          2          3          4          5          6
     1  C    5.019958   0.214220   0.388176   0.038823  -0.219841   0.087378
     2  O    0.214220   8.053968  -0.062800   0.188490   0.011174  -0.037284
     3  O    0.388176  -0.062800   8.538602  -0.041169  -0.078239   0.000346
     4  H    0.038823   0.188490  -0.041169   0.601059  -0.012285   0.001476
     5  C   -0.219841   0.011174  -0.078239  -0.012285   5.522995  -0.118820
     6  N    0.087378  -0.037284   0.000346   0.001476  -0.118820   7.162356
     7  H    0.006500   0.000691  -0.004438  -0.000288   0.376007  -0.026926
     8  H    0.006500   0.000691  -0.004438  -0.000288   0.376007  -0.026926
     9  H   -0.016447   0.001126   0.000259  -0.000176   0.045625   0.266876
    10  H   -0.016447   0.001126   0.000259  -0.000176   0.045625   0.266876
               7          8          9         10
     1  C    0.006500   0.006500  -0.016447  -0.016447
     2  O    0.000691   0.000691   0.001126   0.001126
     3  O   -0.004438  -0.004438   0.000259   0.000259
     4  H   -0.000288  -0.000288  -0.000176  -0.000176
     5  C    0.376007   0.376007   0.045625   0.045625
     6  N   -0.026926  -0.026926   0.266876   0.266876
     7  H    0.296866   0.019040  -0.000134   0.000055
     8  H    0.019040   0.296866   0.000055  -0.000134
     9  H   -0.000134   0.000055   0.598988  -0.021467
    10  H    0.000055  -0.000134  -0.021467   0.598988
 Mulliken charges:
               1
     1  C    0.491181
     2  O   -0.371402
     3  O   -0.736557
     4  H    0.224535
     5  C    0.051752
     6  N   -0.575352
     7  H    0.332627
     8  H    0.332627
     9  H    0.125295
    10  H    0.125295
 Sum of Mulliken charges =  -0.00000
 Mulliken charges with hydrogens summed into heavy atoms:
               1
     1  C    0.491181
     2  O   -0.146867
     3  O   -0.736557
     5  C    0.717006
     6  N   -0.324762
 Electronic spatial extent (au):  <R**2>=            415.6495
 Charge=              0.0000 electrons
 Dipole moment (field-independent basis, Debye):
    X=             -1.7893    Y=             -1.0096    Z=              0.0000  Tot=              2.0545
 Quadrupole moment (field-independent basis, Debye-Ang):
   XX=            -27.8622   YY=            -37.2735   ZZ=            -27.2322
   XY=             -2.1873   XZ=              0.0000   YZ=             -0.0000
 Traceless Quadrupole moment (field-independent basis, Debye-Ang):
   XX=              2.9271   YY=             -6.4842   ZZ=              3.5571
   XY=             -2.1873   XZ=              0.0000   YZ=             -0.0000
 Octapole moment (field-independent basis, Debye-Ang**2):
  XXX=             -8.6466  YYY=              4.8647  ZZZ=              0.0000  XYY=            -19.5611
  XXY=              6.8432  XXZ=              0.0000  XZZ=             -0.8859  YZZ=             -2.2010
  YYZ=              0.0000  XYZ=             -0.0000
 Hexadecapole moment (field-independent basis, Debye-Ang**3):
 XXXX=           -131.6242 YYYY=           -378.1793 ZZZZ=            -34.4194 XXXY=             -0.5735
 XXXZ=              0.0000 YYYX=             24.0958 YYYZ=             -0.0000 ZZZX=             -0.0000
 ZZZY=              0.0000 XXYY=            -72.3744 XXZZ=            -28.5921 YYZZ=            -53.7551
 XXYZ=              0.0000 YYXZ=             -0.0000 ZZXY=              5.8294
 N-N= 1.800072559301D+02 E-N=-1.026247279498D+03  KE= 2.825403958349D+02
 Symmetry A'   KE= 2.697295717501D+02
 Symmetry A"   KE= 1.281082408476D+01
 Leave Link  601 at Tue Jan 19 01:41:17 2021, MaxMem= 13421772800 cpu:              33.6 elap:               1.5
 (Enter /home/share/software/programs/Gaussian/g16/l9999.exe)
 Unable to Open any file for archive entry.
 1\1\GINC-CU39\SP\RCCSD(T)-FC\Aug-CC-pVTZ\C2H5N1O2\ROOT\19-Jan-2021\0\\
 #p ccsd(t) aug-cc-pvtz\\start best geom PCCP paper\\0,1\C\O,1,1.34824\
 O,1,1.20339,2,122.72896\H,2,0.965621,1,106.37597,3,0.,0\C,1,1.51736,3,
 123.80161,2,180.,0\N,5,1.44458,1,118.62999,3,180.,0\H,5,1.0899,1,105.9
 5621,3,56.19793,0\H,5,1.0899,1,105.95621,3,-56.19793,0\H,6,1.00975,5,1
 11.34671,1,59.71795,0\H,6,1.00975,5,111.34671,1,-59.71795,0\\Version=E
 S64L-G16RevC.01\State=1-A'\HF=-282.9495578\MP2=-283.978679\MP3=-283.98
 87878\MP4D=-284.0097001\MP4DQ=-283.9868004\MP4SDQ=-283.9981635\CCSD=-2
 83.995103\CCSD(T)=-284.0399896\RMSD=3.160e-09\PG=CS [SG(C2H1N1O2),X(H4
 )]\\@
 The archive entry for this job was punched.


 WHAT THE SLIME CONTAINS, THE GLOWING REVEALS
 BY THE FLAME'S BRIGHT HUE WHEN YOU IGNITE IT.
   --  LEONARD THURNEYSSER, 1531-1596
 DESCRIBING HIS FLAME PHOTOLYSIS ANALYTIC METHOD
 Job cpu time:       2 days  5 hours  9 minutes 21.4 seconds.
 Elapsed time:       0 days  0 hours 50 minutes 18.1 seconds.
 File lengths (MBytes):  RWF=  13564 Int=      0 D2E=      0 Chk=     10 Scr=      2
 Normal termination of Gaussian 16 at Tue Jan 19 01:41:19 2021.
