 Entering Gaussian System, Link 0=g16
 Input=VII_tcc_Best_geom_CCSDT_aug_cc_pVTZ.gjf
 Output=VII_tcc_Best_geom_CCSDT_aug_cc_pVTZ.log
 Initial command:
 /home/share/software/programs/Gaussian/g16/l1.exe "/home/qr/scratch/Gau-157745.inp" -scrdir="/home/qr/scratch/"
 Entering Link 1 = /home/share/software/programs/Gaussian/g16/l1.exe PID=    157746.
  
 Copyright (c) 1988-2019, Gaussian, Inc.  All Rights Reserved.
  
 This is part of the Gaussian(R) 16 program.  It is based on
 the Gaussian(R) 09 system (copyright 2009, Gaussian, Inc.),
 the Gaussian(R) 03 system (copyright 2003, Gaussian, Inc.),
 the Gaussian(R) 98 system (copyright 1998, Gaussian, Inc.),
 the Gaussian(R) 94 system (copyright 1995, Gaussian, Inc.),
 the Gaussian 92(TM) system (copyright 1992, Gaussian, Inc.),
 the Gaussian 90(TM) system (copyright 1990, Gaussian, Inc.),
 the Gaussian 88(TM) system (copyright 1988, Gaussian, Inc.),
 the Gaussian 86(TM) system (copyright 1986, Carnegie Mellon
 University), and the Gaussian 82(TM) system (copyright 1983,
 Carnegie Mellon University). Gaussian is a federally registered
 trademark of Gaussian, Inc.
  
 This software contains proprietary and confidential information,
 including trade secrets, belonging to Gaussian, Inc.
  
 This software is provided under written license and may be
 used, copied, transmitted, or stored only in accord with that
 written license.
  
 The following legend is applicable only to US Government
 contracts under FAR:
  
                    RESTRICTED RIGHTS LEGEND
  
 Use, reproduction and disclosure by the US Government is
 subject to restrictions as set forth in subparagraphs (a)
 and (c) of the Commercial Computer Software - Restricted
 Rights clause in FAR 52.227-19.
  
 Gaussian, Inc.
 340 Quinnipiac St., Bldg. 40, Wallingford CT 06492
  
  
 ---------------------------------------------------------------
 Warning -- This program may not be used in any manner that
 competes with the business of Gaussian, Inc. or will provide
 assistance to any competitor of Gaussian, Inc.  The licensee
 of this program is prohibited from giving any competitor of
 Gaussian, Inc. access to this program.  By using this program,
 the user acknowledges that Gaussian, Inc. is engaged in the
 business of creating and licensing software in the field of
 computational chemistry and represents and warrants to the
 licensee that it is not a competitor of Gaussian, Inc. and that
 it will not use this program in any manner prohibited above.
 ---------------------------------------------------------------
  

 Cite this work as:
 Gaussian 16, Revision C.01,
 M. J. Frisch, G. W. Trucks, H. B. Schlegel, G. E. Scuseria, 
 M. A. Robb, J. R. Cheeseman, G. Scalmani, V. Barone, 
 G. A. Petersson, H. Nakatsuji, X. Li, M. Caricato, A. V. Marenich, 
 J. Bloino, B. G. Janesko, R. Gomperts, B. Mennucci, H. P. Hratchian, 
 J. V. Ortiz, A. F. Izmaylov, J. L. Sonnenberg, D. Williams-Young, 
 F. Ding, F. Lipparini, F. Egidi, J. Goings, B. Peng, A. Petrone, 
 T. Henderson, D. Ranasinghe, V. G. Zakrzewski, J. Gao, N. Rega, 
 G. Zheng, W. Liang, M. Hada, M. Ehara, K. Toyota, R. Fukuda, 
 J. Hasegawa, M. Ishida, T. Nakajima, Y. Honda, O. Kitao, H. Nakai, 
 T. Vreven, K. Throssell, J. A. Montgomery, Jr., J. E. Peralta, 
 F. Ogliaro, M. J. Bearpark, J. J. Heyd, E. N. Brothers, K. N. Kudin, 
 V. N. Staroverov, T. A. Keith, R. Kobayashi, J. Normand, 
 K. Raghavachari, A. P. Rendell, J. C. Burant, S. S. Iyengar, 
 J. Tomasi, M. Cossi, J. M. Millam, M. Klene, C. Adamo, R. Cammi, 
 J. W. Ochterski, R. L. Martin, K. Morokuma, O. Farkas, 
 J. B. Foresman, and D. J. Fox, Gaussian, Inc., Wallingford CT, 2019.
 
 ******************************************
 Gaussian 16:  ES64L-G16RevC.01  3-Jul-2019
                19-Jan-2021 
 ******************************************
 %chk=VII_tcc_Best_geom_CCSDT_aug_cc_pVTZ.chk
 %nprocshared=64
 Will use up to   64 processors via shared memory.
 %mem=100GB
 ----------------------
 #p ccsd(t) aug-cc-pvtz
 ----------------------
 1/38=1,172=1/1;
 2/12=2,17=6,18=5,40=1/2;
 3/5=16,6=1,7=10,11=9,25=1,30=1/1,2,3;
 4//1;
 5/5=2,38=5/2;
 8/6=4,9=120000,10=1/1,4;
 9/5=7,14=2/13;
 6/7=2,8=2,9=2,10=2/1;
 99/5=1,9=1/99;
 Leave Link    1 at Tue Jan 19 06:30:53 2021, MaxMem= 13421772800 cpu:               3.1 elap:               0.1
 (Enter /home/share/software/programs/Gaussian/g16/l101.exe)
 ------
 VII_SP
 ------
 Symbolic Z-matrix:
 Charge =  0 Multiplicity = 1
 C
 O                    1    B1
 O                    1    B2       2    A1
 H                    2    B3       1    A2       3    D1       0
 C                    1    B4       3    A3       2    D2       0
 N                    5    B5       1    A4       3    D3       0
 H                    5    B6       1    A5       3    D4       0
 H                    5    B7       1    A6       3    D5       0
 H                    6    B8       5    A7       1    D6       0
 H                    6    B9       5    A8       1    D7       0
       Variables:
  B1                    1.34574                  
  B2                    1.19815                  
  B3                    0.96472                  
  B4                    1.52715                  
  B5                    1.44048                  
  B6                    1.08922                  
  B7                    1.08922                  
  B8                    1.00566                  
  B9                    1.00566                  
  A1                  121.2126                   
  A2                  108.75236                  
  A3                  122.19982                  
  A4                  118.81834                  
  A5                  105.99599                  
  A6                  105.99599                  
  A7                  116.68391                  
  A8                  116.68391                  
  D1                  180.                       
  D2                  180.                       
  D3                  180.                       
  D4                   56.33574                  
  D5                  -56.33574                  
  D6                  -68.87807                  
  D7                   68.87807                  
 
 ITRead=  0  0  0  0  0  0  0  0  0  0
 MicOpt= -1 -1 -1 -1 -1 -1 -1 -1 -1 -1
 NAtoms=     10 NQM=       10 NQMF=       0 NMMI=      0 NMMIF=      0
                NMic=       0 NMicF=      0.
                    Isotopes and Nuclear Properties:
 (Nuclear quadrupole moments (NQMom) in fm**2, nuclear magnetic moments (NMagM)
  in nuclear magnetons)

  Atom         1           2           3           4           5           6           7           8           9          10
 IAtWgt=          12          16          16           1          12          14           1           1           1           1
 AtmWgt=  12.0000000  15.9949146  15.9949146   1.0078250  12.0000000  14.0030740   1.0078250   1.0078250   1.0078250   1.0078250
 NucSpn=           0           0           0           1           0           2           1           1           1           1
 AtZEff=  -0.0000000  -0.0000000  -0.0000000  -0.0000000  -0.0000000  -0.0000000  -0.0000000  -0.0000000  -0.0000000  -0.0000000
 NQMom=    0.0000000   0.0000000   0.0000000   0.0000000   0.0000000   2.0440000   0.0000000   0.0000000   0.0000000   0.0000000
 NMagM=    0.0000000   0.0000000   0.0000000   2.7928460   0.0000000   0.4037610   2.7928460   2.7928460   2.7928460   2.7928460
 AtZNuc=   6.0000000   8.0000000   8.0000000   1.0000000   6.0000000   7.0000000   1.0000000   1.0000000   1.0000000   1.0000000
 Leave Link  101 at Tue Jan 19 06:30:53 2021, MaxMem= 13421772800 cpu:               8.2 elap:               0.2
 (Enter /home/share/software/programs/Gaussian/g16/l202.exe)
                          Input orientation:                          
 ---------------------------------------------------------------------
 Center     Atomic      Atomic             Coordinates (Angstroms)
 Number     Number       Type             X           Y           Z
 ---------------------------------------------------------------------
      1          6           0        0.000000    0.000000    0.000000
      2          8           0        0.000000    0.000000    1.345736
      3          8           0        1.024715    0.000000   -0.620898
      4          1           0       -0.913510    0.000000    1.655872
      5          6           0       -1.365657    0.000000   -0.683500
      6          7           0       -2.551449    0.000000    0.134343
      7          1           0       -1.374303   -0.871458   -1.336868
      8          1           0       -1.374303    0.871458   -1.336868
      9          1           0       -2.739373   -0.838184    0.657296
     10          1           0       -2.739373    0.838184    0.657296
 ---------------------------------------------------------------------
                    Distance matrix (angstroms):
                    1          2          3          4          5
     1  C    0.000000
     2  O    1.345736   0.000000
     3  O    1.198147   2.217586   0.000000
     4  H    1.891141   0.964720   2.990050   0.000000
     5  C    1.527151   2.445979   2.391192   2.382666   0.000000
     6  N    2.554984   2.824423   3.655043   2.235598   1.440476
     7  H    2.106031   3.137596   2.650914   3.150915   1.089222
     8  H    2.106031   3.137596   2.650914   3.150915   1.089222
     9  H    2.939176   2.946297   4.062597   2.243543   2.094608
    10  H    2.939176   2.946297   4.062597   2.243543   2.094608
                    6          7          8          9         10
     6  N    0.000000
     7  H    2.075951   0.000000
     8  H    2.075951   1.742917   0.000000
     9  H    1.005658   2.416860   2.960234   0.000000
    10  H    1.005658   2.960234   2.416860   1.676369   0.000000
 Stoichiometry    C2H5NO2
 Framework group  CS[SG(C2HNO2),X(H4)]
 Deg. of freedom    15
 Full point group                 CS      NOp   2
 Largest Abelian subgroup         CS      NOp   2
 Largest concise Abelian subgroup CS      NOp   2
                         Standard orientation:                         
 ---------------------------------------------------------------------
 Center     Atomic      Atomic             Coordinates (Angstroms)
 Number     Number       Type             X           Y           Z
 ---------------------------------------------------------------------
      1          6           0        0.000000    0.678907    0.000000
      2          8           0       -1.337854    0.533471    0.000000
      3          8           0        0.506518    1.764722    0.000000
      4          1           0       -1.547449   -0.408206    0.000000
      5          6           0        0.827086   -0.604884   -0.000000
      6          7           0        0.142184   -1.872117   -0.000000
      7          1           0        1.477562   -0.542869    0.871458
      8          1           0        1.477562   -0.542869   -0.871458
      9          1           0       -0.357397   -2.115457    0.838184
     10          1           0       -0.357397   -2.115457   -0.838184
 ---------------------------------------------------------------------
 Rotational constants (GHZ):           9.9652158           4.0049802           2.9552908
 Leave Link  202 at Tue Jan 19 06:30:53 2021, MaxMem= 13421772800 cpu:               4.2 elap:               0.1
 (Enter /home/share/software/programs/Gaussian/g16/l301.exe)
 Standard basis: Aug-CC-pVTZ (5D, 7F)
 Ernie: Thresh=  0.10000D-02 Tol=  0.10000D-05 Strict=F.
 Ernie:  15 primitive shells out of 205 were deleted.
 There are   253 symmetry adapted cartesian basis functions of A'  symmetry.
 There are   147 symmetry adapted cartesian basis functions of A"  symmetry.
 There are   212 symmetry adapted basis functions of A'  symmetry.
 There are   133 symmetry adapted basis functions of A"  symmetry.
   345 basis functions,   495 primitive gaussians,   400 cartesian basis functions
    20 alpha electrons       20 beta electrons
       nuclear repulsion energy       180.0741256900 Hartrees.
 IExCor=    0 DFT=F Ex=HF Corr=None ExCW=0 ScaHFX=  1.000000
 ScaDFX=  1.000000  1.000000  1.000000  1.000000 ScalE2=  1.000000  1.000000
 IRadAn=      5 IRanWt=     -1 IRanGd=            0 ICorTp=0 IEmpDi=  4
 NAtoms=   10 NActive=   10 NUniq=    8 SFac= 1.56D+00 NAtFMM=   60 NAOKFM=F Big=F
 Integral buffers will be    131072 words long.
 Raffenetti 1 integral format.
 Two-electron integral symmetry is turned on.
 Leave Link  301 at Tue Jan 19 06:30:53 2021, MaxMem= 13421772800 cpu:               7.0 elap:               0.2
 (Enter /home/share/software/programs/Gaussian/g16/l302.exe)
 NPDir=0 NMtPBC=     1 NCelOv=     1 NCel=       1 NClECP=     1 NCelD=      1
         NCelK=      1 NCelE2=     1 NClLst=     1 CellRange=     0.0.
 One-electron integrals computed using PRISM.
 One-electron integral symmetry used in STVInt
 NBasis=   345 RedAO= T EigKep=  1.62D-05  NBF=   212   133
 NBsUse=   345 1.00D-06 EigRej= -1.00D+00 NBFU=   212   133
 Leave Link  302 at Tue Jan 19 06:30:54 2021, MaxMem= 13421772800 cpu:              19.3 elap:               0.3
 (Enter /home/share/software/programs/Gaussian/g16/l303.exe)
 DipDrv:  MaxL=1.
 Leave Link  303 at Tue Jan 19 06:30:54 2021, MaxMem= 13421772800 cpu:               2.8 elap:               0.1
 (Enter /home/share/software/programs/Gaussian/g16/l401.exe)
 ExpMin= 2.53D-02 ExpMax= 1.53D+04 ExpMxC= 5.22D+02 IAcc=3 IRadAn=         5 AccDes= 0.00D+00
 Harris functional with IExCor=  205 and IRadAn=       5 diagonalized for initial guess.
 HarFok:  IExCor=  205 AccDes= 0.00D+00 IRadAn=         5 IDoV= 1 UseB2=F ITyADJ=14
 ICtDFT=  3500011 ScaDFX=  1.000000  1.000000  1.000000  1.000000
 FoFCou: FMM=F IPFlag=           0 FMFlag=      100000 FMFlg1=           0
         NFxFlg=           0 DoJE=T BraDBF=F KetDBF=T FulRan=T
         wScrn=  0.000000 ICntrl=       500 IOpCl=  0 I1Cent=   200000004 NGrid=           0
         NMat0=    1 NMatS0=      1 NMatT0=    0 NMatD0=    1 NMtDS0=    0 NMtDT0=    0
 Petite list used in FoFCou.
 Harris En= -283.228319158793    
 JPrj=0 DoOrth=F DoCkMO=F.
 Initial guess orbital symmetries:
       Occupied  (A') (A') (A') (A') (A') (A') (A') (A') (A') (A')
                 (A') (A") (A') (A') (A") (A') (A") (A") (A') (A')
       Virtual   (A") (A') (A') (A") (A') (A') (A") (A') (A') (A")
                 (A') (A') (A") (A') (A') (A') (A') (A") (A') (A")
                 (A") (A') (A') (A") (A') (A') (A") (A') (A') (A')
                 (A') (A") (A') (A") (A') (A') (A") (A') (A') (A')
                 (A') (A") (A") (A") (A') (A") (A') (A') (A") (A')
                 (A') (A") (A') (A') (A") (A') (A") (A') (A') (A')
                 (A") (A') (A') (A") (A') (A") (A') (A') (A") (A')
                 (A') (A') (A") (A') (A") (A') (A") (A') (A") (A')
                 (A") (A') (A") (A') (A") (A') (A") (A') (A') (A')
                 (A") (A") (A') (A") (A") (A') (A') (A') (A") (A')
                 (A") (A') (A') (A') (A") (A") (A') (A') (A") (A')
                 (A') (A") (A') (A") (A') (A") (A") (A') (A") (A')
                 (A') (A') (A") (A') (A') (A') (A') (A") (A') (A")
                 (A") (A') (A") (A') (A") (A') (A") (A') (A") (A')
                 (A") (A') (A') (A') (A") (A') (A') (A") (A") (A')
                 (A") (A') (A') (A") (A') (A') (A") (A') (A') (A")
                 (A") (A') (A") (A') (A') (A') (A") (A') (A') (A')
                 (A') (A') (A") (A") (A") (A') (A") (A') (A') (A")
                 (A") (A') (A') (A') (A") (A') (A') (A") (A') (A")
                 (A') (A") (A") (A') (A") (A') (A') (A") (A') (A')
                 (A') (A') (A") (A') (A") (A") (A') (A') (A") (A')
                 (A') (A") (A') (A") (A') (A') (A") (A") (A") (A')
                 (A") (A') (A') (A") (A') (A") (A') (A') (A") (A')
                 (A") (A') (A") (A') (A") (A") (A') (A') (A") (A')
                 (A') (A") (A") (A") (A') (A') (A') (A') (A') (A")
                 (A') (A") (A') (A') (A') (A') (A") (A") (A') (A")
                 (A') (A") (A") (A') (A') (A") (A') (A") (A') (A')
                 (A") (A") (A') (A') (A') (A") (A') (A') (A") (A')
                 (A') (A") (A') (A') (A') (A") (A') (A') (A') (A")
                 (A') (A') (A") (A") (A") (A") (A') (A') (A") (A')
                 (A") (A') (A") (A') (A") (A') (A") (A") (A') (A')
                 (A") (A") (A') (A') (A") (A') (A') (A') (A') (A')
                 (A') (A') (A') (A') (A')
 The electronic state of the initial guess is 1-A'.
 Leave Link  401 at Tue Jan 19 06:30:54 2021, MaxMem= 13421772800 cpu:              32.8 elap:               0.6
 (Enter /home/share/software/programs/Gaussian/g16/l502.exe)
 Keep R1 ints in memory in symmetry-blocked form, NReq=2674621453.
 FoFCou: FMM=F IPFlag=           0 FMFlag=           0 FMFlg1=           0
         NFxFlg=           0 DoJE=F BraDBF=F KetDBF=F FulRan=T
         wScrn=  0.000000 ICntrl=       600 IOpCl=  0 I1Cent=           0 NGrid=           0
         NMat0=    1 NMatS0=  59685 NMatT0=    0 NMatD0=    1 NMtDS0=    0 NMtDT0=    0
 Petite list used in FoFCou.
 Closed shell SCF:
 Using DIIS extrapolation, IDIIS=  1040.
 NGot= 13421772800 LenX= 12527983856 LenY= 12527823415
 Requested convergence on RMS density matrix=1.00D-08 within 128 cycles.
 Requested convergence on MAX density matrix=1.00D-06.
 Requested convergence on             energy=1.00D-06.
 No special actions if energy rises.

 Cycle   1  Pass 1  IDiag  1:
 E= -282.698399741002    
 DIIS: error= 2.43D-02 at cycle   1 NSaved=   1.
 NSaved= 1 IEnMin= 1 EnMin= -282.698399741002     IErMin= 1 ErrMin= 2.43D-02
 ErrMax= 2.43D-02  0.00D+00 EMaxC= 1.00D-01 BMatC= 6.00D-01 BMatP= 6.00D-01
 IDIUse=3 WtCom= 7.57D-01 WtEn= 2.43D-01
 Coeff-Com:  0.100D+01
 Coeff-En:   0.100D+01
 Coeff:      0.100D+01
 Gap=     0.389 Goal=   None    Shift=    0.000
 GapD=    0.389 DampG=1.000 DampE=0.500 DampFc=0.5000 IDamp=-1.
 Damping current iteration by 5.00D-01
 RMSDP=1.52D-03 MaxDP=7.78D-02              OVMax= 1.33D-01

 Cycle   2  Pass 1  IDiag  1:
 E= -282.824856018567     Delta-E=       -0.126456277566 Rises=F Damp=T
 DIIS: error= 1.31D-02 at cycle   2 NSaved=   2.
 NSaved= 2 IEnMin= 2 EnMin= -282.824856018567     IErMin= 2 ErrMin= 1.31D-02
 ErrMax= 1.31D-02  0.00D+00 EMaxC= 1.00D-01 BMatC= 1.22D-01 BMatP= 6.00D-01
 IDIUse=3 WtCom= 8.69D-01 WtEn= 1.31D-01
 Coeff-Com: -0.576D+00 0.158D+01
 Coeff-En:   0.000D+00 0.100D+01
 Coeff:     -0.500D+00 0.150D+01
 Gap=     0.448 Goal=   None    Shift=    0.000
 RMSDP=8.38D-04 MaxDP=5.85D-02 DE=-1.26D-01 OVMax= 5.38D-02

 Cycle   3  Pass 1  IDiag  1:
 E= -282.936379793290     Delta-E=       -0.111523774723 Rises=F Damp=F
 DIIS: error= 4.47D-03 at cycle   3 NSaved=   3.
 NSaved= 3 IEnMin= 3 EnMin= -282.936379793290     IErMin= 3 ErrMin= 4.47D-03
 ErrMax= 4.47D-03  0.00D+00 EMaxC= 1.00D-01 BMatC= 6.26D-03 BMatP= 1.22D-01
 IDIUse=3 WtCom= 9.55D-01 WtEn= 4.47D-02
 Coeff-Com: -0.193D+00 0.346D+00 0.847D+00
 Coeff-En:   0.000D+00 0.000D+00 0.100D+01
 Coeff:     -0.185D+00 0.331D+00 0.854D+00
 Gap=     0.430 Goal=   None    Shift=    0.000
 RMSDP=1.58D-04 MaxDP=1.52D-02 DE=-1.12D-01 OVMax= 2.41D-02

 Cycle   4  Pass 1  IDiag  1:
 E= -282.940376349990     Delta-E=       -0.003996556700 Rises=F Damp=F
 DIIS: error= 1.31D-03 at cycle   4 NSaved=   4.
 NSaved= 4 IEnMin= 4 EnMin= -282.940376349990     IErMin= 4 ErrMin= 1.31D-03
 ErrMax= 1.31D-03  0.00D+00 EMaxC= 1.00D-01 BMatC= 4.12D-04 BMatP= 6.26D-03
 IDIUse=3 WtCom= 9.87D-01 WtEn= 1.31D-02
 Coeff-Com: -0.432D-01 0.650D-01 0.273D+00 0.705D+00
 Coeff-En:   0.000D+00 0.000D+00 0.000D+00 0.100D+01
 Coeff:     -0.427D-01 0.641D-01 0.269D+00 0.709D+00
 Gap=     0.426 Goal=   None    Shift=    0.000
 RMSDP=4.06D-05 MaxDP=1.78D-03 DE=-4.00D-03 OVMax= 4.37D-03

 Cycle   5  Pass 1  IDiag  1:
 E= -282.940727281617     Delta-E=       -0.000350931626 Rises=F Damp=F
 DIIS: error= 3.23D-04 at cycle   5 NSaved=   5.
 NSaved= 5 IEnMin= 5 EnMin= -282.940727281617     IErMin= 5 ErrMin= 3.23D-04
 ErrMax= 3.23D-04  0.00D+00 EMaxC= 1.00D-01 BMatC= 2.51D-05 BMatP= 4.12D-04
 IDIUse=3 WtCom= 9.97D-01 WtEn= 3.23D-03
 Coeff-Com:  0.173D-01-0.311D-01-0.835D-01 0.331D-02 0.109D+01
 Coeff-En:   0.000D+00 0.000D+00 0.000D+00 0.000D+00 0.100D+01
 Coeff:      0.173D-01-0.310D-01-0.833D-01 0.330D-02 0.109D+01
 Gap=     0.426 Goal=   None    Shift=    0.000
 RMSDP=2.04D-05 MaxDP=1.16D-03 DE=-3.51D-04 OVMax= 3.68D-03

 Cycle   6  Pass 1  IDiag  1:
 E= -282.940778667577     Delta-E=       -0.000051385960 Rises=F Damp=F
 DIIS: error= 9.39D-05 at cycle   6 NSaved=   6.
 NSaved= 6 IEnMin= 6 EnMin= -282.940778667577     IErMin= 6 ErrMin= 9.39D-05
 ErrMax= 9.39D-05  0.00D+00 EMaxC= 1.00D-01 BMatC= 4.36D-06 BMatP= 2.51D-05
 IDIUse=1 WtCom= 1.00D+00 WtEn= 0.00D+00
 Coeff-Com:  0.876D-02-0.144D-01-0.490D-01-0.902D-01 0.239D+00 0.906D+00
 Coeff:      0.876D-02-0.144D-01-0.490D-01-0.902D-01 0.239D+00 0.906D+00
 Gap=     0.427 Goal=   None    Shift=    0.000
 RMSDP=9.06D-06 MaxDP=4.93D-04 DE=-5.14D-05 OVMax= 1.08D-03

 Cycle   7  Pass 1  IDiag  1:
 E= -282.940786489985     Delta-E=       -0.000007822409 Rises=F Damp=F
 DIIS: error= 4.67D-05 at cycle   7 NSaved=   7.
 NSaved= 7 IEnMin= 7 EnMin= -282.940786489985     IErMin= 7 ErrMin= 4.67D-05
 ErrMax= 4.67D-05  0.00D+00 EMaxC= 1.00D-01 BMatC= 4.67D-07 BMatP= 4.36D-06
 IDIUse=1 WtCom= 1.00D+00 WtEn= 0.00D+00
 Coeff-Com: -0.205D-02 0.368D-02 0.127D-01-0.484D-02-0.121D+00-0.414D-01
 Coeff-Com:  0.115D+01
 Coeff:     -0.205D-02 0.368D-02 0.127D-01-0.484D-02-0.121D+00-0.414D-01
 Coeff:      0.115D+01
 Gap=     0.427 Goal=   None    Shift=    0.000
 RMSDP=3.19D-06 MaxDP=1.38D-04 DE=-7.82D-06 OVMax= 7.00D-04

 Cycle   8  Pass 1  IDiag  1:
 E= -282.940787801572     Delta-E=       -0.000001311587 Rises=F Damp=F
 DIIS: error= 1.56D-05 at cycle   8 NSaved=   8.
 NSaved= 8 IEnMin= 8 EnMin= -282.940787801572     IErMin= 8 ErrMin= 1.56D-05
 ErrMax= 1.56D-05  0.00D+00 EMaxC= 1.00D-01 BMatC= 7.35D-08 BMatP= 4.67D-07
 IDIUse=1 WtCom= 1.00D+00 WtEn= 0.00D+00
 Coeff-Com: -0.116D-02 0.191D-02 0.712D-02 0.831D-02-0.280D-01-0.120D+00
 Coeff-Com: -0.304D-01 0.116D+01
 Coeff:     -0.116D-02 0.191D-02 0.712D-02 0.831D-02-0.280D-01-0.120D+00
 Coeff:     -0.304D-01 0.116D+01
 Gap=     0.427 Goal=   None    Shift=    0.000
 RMSDP=1.28D-06 MaxDP=6.28D-05 DE=-1.31D-06 OVMax= 2.93D-04

 Cycle   9  Pass 1  IDiag  1:
 E= -282.940788001898     Delta-E=       -0.000000200326 Rises=F Damp=F
 DIIS: error= 4.66D-06 at cycle   9 NSaved=   9.
 NSaved= 9 IEnMin= 9 EnMin= -282.940788001898     IErMin= 9 ErrMin= 4.66D-06
 ErrMax= 4.66D-06  0.00D+00 EMaxC= 1.00D-01 BMatC= 9.61D-09 BMatP= 7.35D-08
 IDIUse=1 WtCom= 1.00D+00 WtEn= 0.00D+00
 Coeff-Com:  0.341D-04-0.103D-03-0.699D-04 0.138D-02 0.115D-01-0.177D-01
 Coeff-Com: -0.147D+00 0.194D+00 0.958D+00
 Coeff:      0.341D-04-0.103D-03-0.699D-04 0.138D-02 0.115D-01-0.177D-01
 Coeff:     -0.147D+00 0.194D+00 0.958D+00
 Gap=     0.427 Goal=   None    Shift=    0.000
 RMSDP=3.51D-07 MaxDP=1.88D-05 DE=-2.00D-07 OVMax= 8.64D-05

 Cycle  10  Pass 1  IDiag  1:
 E= -282.940788022339     Delta-E=       -0.000000020441 Rises=F Damp=F
 DIIS: error= 1.71D-06 at cycle  10 NSaved=  10.
 NSaved=10 IEnMin=10 EnMin= -282.940788022339     IErMin=10 ErrMin= 1.71D-06
 ErrMax= 1.71D-06  0.00D+00 EMaxC= 1.00D-01 BMatC= 1.08D-09 BMatP= 9.61D-09
 IDIUse=1 WtCom= 1.00D+00 WtEn= 0.00D+00
 Coeff-Com:  0.184D-03-0.307D-03-0.105D-02-0.159D-02 0.539D-02 0.167D-01
 Coeff-Com:  0.220D-02-0.173D+00 0.325D-01 0.112D+01
 Coeff:      0.184D-03-0.307D-03-0.105D-02-0.159D-02 0.539D-02 0.167D-01
 Coeff:      0.220D-02-0.173D+00 0.325D-01 0.112D+01
 Gap=     0.427 Goal=   None    Shift=    0.000
 RMSDP=1.54D-07 MaxDP=7.82D-06 DE=-2.04D-08 OVMax= 2.79D-05

 Cycle  11  Pass 1  IDiag  1:
 E= -282.940788024879     Delta-E=       -0.000000002540 Rises=F Damp=F
 DIIS: error= 4.15D-07 at cycle  11 NSaved=  11.
 NSaved=11 IEnMin=11 EnMin= -282.940788024879     IErMin=11 ErrMin= 4.15D-07
 ErrMax= 4.15D-07  0.00D+00 EMaxC= 1.00D-01 BMatC= 6.32D-11 BMatP= 1.08D-09
 IDIUse=1 WtCom= 1.00D+00 WtEn= 0.00D+00
 Coeff-Com: -0.586D-05 0.123D-04 0.665D-04-0.412D-04-0.102D-02 0.339D-04
 Coeff-Com:  0.109D-01-0.200D-02-0.793D-01-0.837D-01 0.116D+01
 Coeff:     -0.586D-05 0.123D-04 0.665D-04-0.412D-04-0.102D-02 0.339D-04
 Coeff:      0.109D-01-0.200D-02-0.793D-01-0.837D-01 0.116D+01
 Gap=     0.427 Goal=   None    Shift=    0.000
 RMSDP=4.38D-08 MaxDP=1.77D-06 DE=-2.54D-09 OVMax= 5.97D-06

 Cycle  12  Pass 1  IDiag  1:
 E= -282.940788025062     Delta-E=       -0.000000000183 Rises=F Damp=F
 DIIS: error= 1.14D-07 at cycle  12 NSaved=  12.
 NSaved=12 IEnMin=12 EnMin= -282.940788025062     IErMin=12 ErrMin= 1.14D-07
 ErrMax= 1.14D-07  0.00D+00 EMaxC= 1.00D-01 BMatC= 4.54D-12 BMatP= 6.32D-11
 IDIUse=1 WtCom= 1.00D+00 WtEn= 0.00D+00
 Coeff-Com: -0.119D-04 0.195D-04 0.763D-04 0.106D-03-0.327D-03-0.121D-02
 Coeff-Com: -0.112D-02 0.144D-01 0.158D-02-0.836D-01-0.651D-01 0.114D+01
 Coeff:     -0.119D-04 0.195D-04 0.763D-04 0.106D-03-0.327D-03-0.121D-02
 Coeff:     -0.112D-02 0.144D-01 0.158D-02-0.836D-01-0.651D-01 0.114D+01
 Gap=     0.427 Goal=   None    Shift=    0.000
 RMSDP=1.28D-08 MaxDP=3.89D-07 DE=-1.83D-10 OVMax= 1.26D-06

 Cycle  13  Pass 1  IDiag  1:
 E= -282.940788025065     Delta-E=       -0.000000000003 Rises=F Damp=F
 DIIS: error= 3.04D-08 at cycle  13 NSaved=  13.
 NSaved=13 IEnMin=13 EnMin= -282.940788025065     IErMin=13 ErrMin= 3.04D-08
 ErrMax= 3.04D-08  0.00D+00 EMaxC= 1.00D-01 BMatC= 3.64D-13 BMatP= 4.54D-12
 IDIUse=1 WtCom= 1.00D+00 WtEn= 0.00D+00
 Coeff-Com:  0.677D-06-0.141D-05-0.495D-05-0.412D-07 0.874D-04 0.155D-04
 Coeff-Com: -0.105D-02 0.528D-03 0.664D-02 0.409D-02-0.952D-01 0.442D-01
 Coeff-Com:  0.104D+01
 Coeff:      0.677D-06-0.141D-05-0.495D-05-0.412D-07 0.874D-04 0.155D-04
 Coeff:     -0.105D-02 0.528D-03 0.664D-02 0.409D-02-0.952D-01 0.442D-01
 Coeff:      0.104D+01
 Gap=     0.427 Goal=   None    Shift=    0.000
 RMSDP=2.82D-09 MaxDP=9.56D-08 DE=-3.01D-12 OVMax= 3.28D-07

 SCF Done:  E(RHF) =  -282.940788025     A.U. after   13 cycles
            NFock= 13  Conv=0.28D-08     -V/T= 2.0014
 KE= 2.825317002187D+02 PE=-1.026208581810D+03 EE= 2.806619678761D+02
 Leave Link  502 at Tue Jan 19 06:31:15 2021, MaxMem= 13421772800 cpu:             466.1 elap:              21.0
 (Enter /home/share/software/programs/Gaussian/g16/l801.exe)
 Windowed orbitals will be sorted by symmetry type.
 ExpMin= 2.53D-02 ExpMax= 1.53D+04 ExpMxC= 5.22D+02 IAcc=3 IRadAn=         5 AccDes= 0.00D+00
 HarFok:  IExCor=  205 AccDes= 0.00D+00 IRadAn=         5 IDoV=-2 UseB2=F ITyADJ=14
 ICtDFT= 12500011 ScaDFX=  1.000000  1.000000  1.000000  1.000000
 Largest valence mixing into a core orbital is  2.05D-04
 Largest core mixing into a valence orbital is  3.08D-05
 Range of M.O.s used for correlation:     6   345
 NBasis=   345 NAE=    20 NBE=    20 NFC=     5 NFV=     0
 NROrb=    340 NOA=    15 NOB=    15 NVA=   325 NVB=   325

 **** Warning!!: The largest alpha MO coefficient is  0.62949264D+02

 Leave Link  801 at Tue Jan 19 06:31:16 2021, MaxMem= 13421772800 cpu:              22.0 elap:               0.4
 (Enter /home/share/software/programs/Gaussian/g16/l804.exe)
 Closed-shell transformation, MDV= 13421772800 ITran=4 ISComp=2.
 Unit  1 TFree=       3936917 TCopy=       1947006.
 Semi-Direct transformation.
 ModeAB=           4 MOrb=            15 LenV=   13418841273
 LASXX=    143860024 LTotXX=   143860024 LenRXX=   289068549
 LTotAB=   145208525 MaxLAS=   322090500 LenRXY=           0
 NonZer=   432928573 LenScr=   649592832 LnRSAI=   322090500
 LnScr1=   483655680 LExtra=           0 Total=   1744407561
 MaxDsk=          -1 SrtSym=           T ITran=            4
 DoSDTr:  NPSUse= 64
 JobTyp=0 Pass  1:  I=   1 to  15.
 (rs|ai) integrals will be sorted in core.
 Complete sort for first half transformation.
 First half transformation complete.
 Begin second half transformation for I=  10.
 Complete sort for second half transformation.
 Second half transformation complete.
 Spin components of T(2) and E(2):
     alpha-alpha T2 =       0.3646457961D-01 E2=     -0.1294006680D+00
     alpha-beta  T2 =       0.2020810053D+00 E2=     -0.7724313459D+00
     beta-beta   T2 =       0.3646457961D-01 E2=     -0.1294006680D+00
 ANorm=    0.1129163480D+01
 E2 =    -0.1031232682D+01 EUMP2 =    -0.28397202070706D+03
 Leave Link  804 at Tue Jan 19 06:32:21 2021, MaxMem= 13421772800 cpu:            4092.1 elap:              64.2
 (Enter /home/share/software/programs/Gaussian/g16/l913.exe)
 CIDS:  MDV= 13421772800.
 Frozen-core window:  NFC=   5 NFV=   0.
 IFCWin=0 IBDFC=1 NFBD=     0     0 NFCmp=     0     0 NFFFC=     0     0
 Using DD3R+UMP44R for 1st iteration.
 Using DD4RQ for 2nd and later iterations.
 Keep R2 and R3 ints in memory in symmetry-blocked form, NReq=2680086220.
 FoFCou: FMM=F IPFlag=           0 FMFlag=           0 FMFlg1=           0
         NFxFlg=           0 DoJE=F BraDBF=F KetDBF=F FulRan=T
         wScrn=  0.000000 ICntrl=       600 IOpCl=  0 I1Cent=           0 NGrid=           0
         NMat0=    1 NMatS0=  59685 NMatT0=    0 NMatD0=    1 NMtDS0=    0 NMtDT0=    0
 Petite list used in FoFCou.
 CIDS: In Core Option IDoMem=           1.
 CCSD(T)
 =======
 Iterations=  50 Convergence= 0.100D-06
 Produce multiple copies of IABC intergrals
 Iteration Nr.   1
 **********************
 DD1Dir will call FoFMem   1 times, MxPair=       240
 NAB=   120 NAA=     0 NBB=     0.
 MP4(R+Q)=  0.23179542D-01
 Maximum subspace dimension=  5
 A-vector RMS=  1.9202653D-03 Max=  2.9776305D-02 conv= 1.00D-05.
 RLE energy=       -1.0175263361
 E3=       -0.98467576D-02        EUMP3=      -0.28398186746D+03
 E4(DQ)=    0.23710405D-02        UMP4(DQ)=   -0.28397949642D+03
 E4(SDQ)=  -0.91288327D-02        UMP4(SDQ)=  -0.28399099630D+03
 VARIATIONAL ENERGIES WITH THE FIRST-ORDER WAVEFUNCTION:
 DE(Corr)=  -1.0173420     E(Corr)=     -283.95813003    
 NORM(A)=   0.11285228D+01
 Iteration Nr.   2
 **********************
 DD1Dir will call FoFMem   1 times, MxPair=       240
 NAB=   120 NAA=     0 NBB=     0.
 A-vector RMS=  2.8860904D-04 Max=  6.8528490D-03 conv= 1.00D-05.
 RLE energy=       -1.0452821773
 DE(Corr)=  -1.0450816     E(CORR)=     -283.98586963     Delta=-2.77D-02
 NORM(A)=   0.11380644D+01
 Iteration Nr.   3
 **********************
 DD1Dir will call FoFMem   1 times, MxPair=       240
 NAB=   120 NAA=     0 NBB=     0.
 A-vector RMS=  3.6897559D-04 Max=  6.5109725D-03 conv= 1.00D-05.
 RLE energy=       -1.0468385904
 DE(Corr)=  -1.0444361     E(CORR)=     -283.98522409     Delta= 6.46D-04
 NORM(A)=   0.11406846D+01
 Iteration Nr.   4
 **********************
 DD1Dir will call FoFMem   1 times, MxPair=       240
 NAB=   120 NAA=     0 NBB=     0.
 A-vector RMS=  6.5610404D-05 Max=  9.5640897D-04 conv= 1.00D-05.
 RLE energy=       -1.0469986810
 DE(Corr)=  -1.0468078     E(CORR)=     -283.98759582     Delta=-2.37D-03
 NORM(A)=   0.11414876D+01
 Iteration Nr.   5
 **********************
 DD1Dir will call FoFMem   1 times, MxPair=       240
 NAB=   120 NAA=     0 NBB=     0.
 A-vector RMS=  3.9790705D-05 Max=  5.1808029D-04 conv= 1.00D-05.
 RLE energy=       -1.0471072558
 DE(Corr)=  -1.0470662     E(CORR)=     -283.98785422     Delta=-2.58D-04
 NORM(A)=   0.11417481D+01
 Iteration Nr.   6
 **********************
 DD1Dir will call FoFMem   1 times, MxPair=       240
 NAB=   120 NAA=     0 NBB=     0.
 A-vector RMS=  1.3638253D-05 Max=  2.0844346D-04 conv= 1.00D-05.
 RLE energy=       -1.0471100519
 DE(Corr)=  -1.0470898     E(CORR)=     -283.98787786     Delta=-2.36D-05
 NORM(A)=   0.11417917D+01
 Iteration Nr.   7
 **********************
 DD1Dir will call FoFMem   1 times, MxPair=       240
 NAB=   120 NAA=     0 NBB=     0.
 A-vector RMS=  5.3341997D-06 Max=  9.6496482D-05 conv= 1.00D-05.
 RLE energy=       -1.0470755845
 DE(Corr)=  -1.0470909     E(CORR)=     -283.98787897     Delta=-1.11D-06
 NORM(A)=   0.11417912D+01
 Iteration Nr.   8
 **********************
 DD1Dir will call FoFMem   1 times, MxPair=       240
 NAB=   120 NAA=     0 NBB=     0.
 A-vector RMS=  1.6260180D-06 Max=  2.6280596D-05 conv= 1.00D-05.
 RLE energy=       -1.0470901035
 DE(Corr)=  -1.0470913     E(CORR)=     -283.98787932     Delta=-3.45D-07
 NORM(A)=   0.11417970D+01
 Iteration Nr.   9
 **********************
 DD1Dir will call FoFMem   1 times, MxPair=       240
 NAB=   120 NAA=     0 NBB=     0.
 A-vector RMS=  6.5469133D-07 Max=  1.0629251D-05 conv= 1.00D-05.
 RLE energy=       -1.0470887176
 DE(Corr)=  -1.0470888     E(CORR)=     -283.98787680     Delta= 2.52D-06
 NORM(A)=   0.11417973D+01
 Iteration Nr.  10
 **********************
 DD1Dir will call FoFMem   1 times, MxPair=       240
 NAB=   120 NAA=     0 NBB=     0.
 A-vector RMS=  2.7161854D-07 Max=  3.5878828D-06 conv= 1.00D-05.
 RLE energy=       -1.0470897961
 DE(Corr)=  -1.0470901     E(CORR)=     -283.98787809     Delta=-1.29D-06
 NORM(A)=   0.11417976D+01
 Iteration Nr.  11
 **********************
 DD1Dir will call FoFMem   1 times, MxPair=       240
 NAB=   120 NAA=     0 NBB=     0.
 A-vector RMS=  1.3060101D-07 Max=  1.9443402D-06 conv= 1.00D-05.
 RLE energy=       -1.0470900341
 DE(Corr)=  -1.0470899     E(CORR)=     -283.98787794     Delta= 1.57D-07
 NORM(A)=   0.11417979D+01
 Iteration Nr.  12
 **********************
 DD1Dir will call FoFMem   1 times, MxPair=       240
 NAB=   120 NAA=     0 NBB=     0.
 A-vector RMS=  6.1496092D-08 Max=  1.0763956D-06 conv= 1.00D-05.
 RLE energy=       -1.0470902468
 DE(Corr)=  -1.0470902     E(CORR)=     -283.98787824     Delta=-2.99D-07
 NORM(A)=   0.11417980D+01
 Iteration Nr.  13
 **********************
 DD1Dir will call FoFMem   1 times, MxPair=       240
 NAB=   120 NAA=     0 NBB=     0.
 A-vector RMS=  2.9780982D-08 Max=  4.1675162D-07 conv= 1.00D-05.
 RLE energy=       -1.0470902714
 DE(Corr)=  -1.0470902     E(CORR)=     -283.98787827     Delta=-3.06D-08
 NORM(A)=   0.11417981D+01
 CI/CC converged in   13 iterations to DelEn=-3.06D-08 Conv= 1.00D-07 ErrA1= 2.98D-08 Conv= 1.00D-05
 Wavefunction amplitudes converged. E(Corr)=     -283.98787827    
 Largest amplitude= 4.10D-02
 IPart= 10 IA=   18   10.20% done.
 IPart=  8 IA=   36   20.41% done.
 IPart= 18 IA=   55   30.51% done.
 IPart= 64 IA=   75   40.41% done.
 IPart=  3 IA=   97   50.42% done.
 IPart=  9 IA=  121   60.28% done.
 IPart= 44 IA=  148   70.08% done.
 IPart= 58 IA=  181   80.17% done.
 IPart= 31 IA=  223   90.02% done.
 Time for triples=   162102.81 seconds.
 T4(CCSD)= -0.47450873D-01
 T5(CCSD)=  0.21808862D-02
 CCSD(T)= -0.28403314825D+03
 Discarding MO integrals.
 Leave Link  913 at Tue Jan 19 07:22:44 2021, MaxMem= 13421772800 cpu:          191282.7 elap:            3000.8
 (Enter /home/share/software/programs/Gaussian/g16/l601.exe)
 Copying SCF densities to generalized density rwf, IOpCl= 0 IROHF=0.

 **********************************************************************

            Population analysis using the SCF Density.

 **********************************************************************

 Orbital symmetries:
       Occupied  (A') (A') (A') (A') (A') (A') (A') (A') (A') (A')
                 (A') (A") (A') (A") (A') (A') (A") (A') (A") (A')
       Virtual   (A') (A") (A') (A') (A") (A') (A') (A") (A') (A')
                 (A') (A") (A') (A') (A") (A') (A") (A") (A') (A')
                 (A") (A') (A') (A") (A') (A") (A') (A') (A') (A")
                 (A') (A') (A") (A") (A') (A') (A') (A") (A') (A')
                 (A") (A") (A') (A') (A") (A') (A") (A') (A') (A")
                 (A') (A') (A") (A') (A") (A') (A') (A') (A') (A')
                 (A") (A') (A") (A') (A") (A') (A') (A') (A") (A')
                 (A') (A") (A') (A") (A') (A') (A") (A') (A") (A")
                 (A") (A') (A') (A') (A") (A") (A') (A') (A") (A')
                 (A') (A") (A") (A') (A") (A') (A') (A") (A') (A')
                 (A') (A") (A') (A") (A') (A") (A') (A') (A') (A")
                 (A") (A') (A") (A") (A') (A') (A") (A') (A') (A")
                 (A') (A") (A') (A') (A") (A') (A') (A') (A") (A')
                 (A') (A") (A") (A') (A') (A") (A") (A') (A") (A')
                 (A") (A') (A") (A') (A') (A') (A") (A') (A") (A')
                 (A") (A') (A') (A') (A") (A') (A") (A') (A") (A')
                 (A') (A") (A') (A") (A') (A') (A") (A') (A') (A')
                 (A") (A') (A") (A') (A") (A") (A') (A") (A') (A')
                 (A") (A') (A') (A") (A') (A') (A") (A') (A") (A')
                 (A') (A") (A") (A') (A") (A') (A') (A") (A') (A')
                 (A') (A") (A') (A') (A") (A") (A') (A') (A") (A')
                 (A') (A") (A') (A") (A') (A") (A") (A") (A') (A')
                 (A') (A") (A') (A") (A') (A") (A') (A') (A") (A")
                 (A') (A') (A") (A') (A") (A") (A") (A') (A') (A')
                 (A") (A") (A') (A") (A') (A') (A') (A") (A') (A')
                 (A") (A') (A') (A') (A") (A') (A') (A') (A") (A")
                 (A') (A") (A") (A') (A") (A') (A') (A") (A') (A")
                 (A') (A") (A') (A') (A') (A") (A') (A') (A") (A')
                 (A") (A') (A') (A') (A') (A") (A') (A') (A') (A")
                 (A') (A") (A') (A") (A") (A') (A") (A") (A') (A')
                 (A") (A') (A") (A') (A") (A") (A') (A") (A') (A')
                 (A") (A') (A") (A") (A') (A') (A') (A') (A') (A')
                 (A') (A') (A') (A') (A')
 The electronic state is 1-A'.
 Alpha  occ. eigenvalues --  -20.61643 -20.54189 -15.58000 -11.38173 -11.29073
 Alpha  occ. eigenvalues --   -1.46568  -1.36690  -1.22031  -0.97929  -0.83132
 Alpha  occ. eigenvalues --   -0.74457  -0.72614  -0.67156  -0.63545  -0.62319
 Alpha  occ. eigenvalues --   -0.57031  -0.56013  -0.48596  -0.47607  -0.40879
 Alpha virt. eigenvalues --    0.01814   0.03531   0.03818   0.04669   0.06151
 Alpha virt. eigenvalues --    0.08116   0.09646   0.09996   0.10093   0.11737
 Alpha virt. eigenvalues --    0.13374   0.13507   0.13849   0.15323   0.16112
 Alpha virt. eigenvalues --    0.16545   0.17335   0.19337   0.19720   0.21088
 Alpha virt. eigenvalues --    0.21814   0.22243   0.24843   0.25390   0.25889
 Alpha virt. eigenvalues --    0.26910   0.27005   0.28303   0.29011   0.32627
 Alpha virt. eigenvalues --    0.33199   0.34317   0.34562   0.35703   0.35861
 Alpha virt. eigenvalues --    0.36410   0.36811   0.37462   0.37873   0.40163
 Alpha virt. eigenvalues --    0.40937   0.41627   0.42356   0.43062   0.44026
 Alpha virt. eigenvalues --    0.45144   0.47364   0.47523   0.48751   0.49424
 Alpha virt. eigenvalues --    0.50000   0.51055   0.52795   0.54332   0.54982
 Alpha virt. eigenvalues --    0.56952   0.58944   0.60860   0.62219   0.63998
 Alpha virt. eigenvalues --    0.64388   0.67481   0.67624   0.71066   0.71982
 Alpha virt. eigenvalues --    0.72699   0.73495   0.74653   0.75472   0.76530
 Alpha virt. eigenvalues --    0.79844   0.80650   0.81116   0.81804   0.84162
 Alpha virt. eigenvalues --    0.84341   0.85288   0.87376   0.88705   0.90666
 Alpha virt. eigenvalues --    0.91774   0.92063   0.92440   0.94733   0.95081
 Alpha virt. eigenvalues --    0.96026   0.96398   0.96972   1.01035   1.01310
 Alpha virt. eigenvalues --    1.02338   1.02582   1.05152   1.05307   1.06298
 Alpha virt. eigenvalues --    1.08234   1.09648   1.11392   1.12307   1.14900
 Alpha virt. eigenvalues --    1.16212   1.16486   1.17360   1.18091   1.21360
 Alpha virt. eigenvalues --    1.23915   1.24048   1.25879   1.26714   1.27313
 Alpha virt. eigenvalues --    1.27908   1.29106   1.29416   1.30331   1.32101
 Alpha virt. eigenvalues --    1.35568   1.37734   1.41315   1.42692   1.43914
 Alpha virt. eigenvalues --    1.44565   1.47014   1.47174   1.48506   1.51104
 Alpha virt. eigenvalues --    1.51177   1.51972   1.55767   1.57282   1.59642
 Alpha virt. eigenvalues --    1.61263   1.61805   1.63365   1.66260   1.67672
 Alpha virt. eigenvalues --    1.67932   1.69225   1.71911   1.71968   1.77029
 Alpha virt. eigenvalues --    1.77592   1.83091   1.83180   1.84704   1.87338
 Alpha virt. eigenvalues --    1.88480   1.91137   1.91584   1.95436   1.98174
 Alpha virt. eigenvalues --    2.01131   2.02851   2.04242   2.07346   2.09218
 Alpha virt. eigenvalues --    2.11934   2.12452   2.16188   2.18203   2.19182
 Alpha virt. eigenvalues --    2.24683   2.26504   2.30161   2.32104   2.32933
 Alpha virt. eigenvalues --    2.36235   2.38435   2.43586   2.44422   2.47768
 Alpha virt. eigenvalues --    2.49232   2.49450   2.51315   2.52537   2.55120
 Alpha virt. eigenvalues --    2.57206   2.57991   2.60737   2.61007   2.63371
 Alpha virt. eigenvalues --    2.69497   2.70213   2.73058   2.77515   2.77895
 Alpha virt. eigenvalues --    2.79229   2.81217   2.85604   2.86790   2.87819
 Alpha virt. eigenvalues --    2.95338   2.97367   2.99859   3.03141   3.05257
 Alpha virt. eigenvalues --    3.12555   3.19371   3.25915   3.27041   3.29558
 Alpha virt. eigenvalues --    3.33043   3.41843   3.42149   3.49042   3.53916
 Alpha virt. eigenvalues --    3.60100   3.60456   3.64464   3.65211   3.70060
 Alpha virt. eigenvalues --    3.75242   3.78648   3.81066   3.82362   3.88028
 Alpha virt. eigenvalues --    3.89613   3.94166   3.95090   3.95685   3.99405
 Alpha virt. eigenvalues --    4.02310   4.02840   4.07284   4.13833   4.15880
 Alpha virt. eigenvalues --    4.20709   4.21287   4.23776   4.24133   4.28953
 Alpha virt. eigenvalues --    4.29732   4.33061   4.34545   4.35700   4.36301
 Alpha virt. eigenvalues --    4.39033   4.40245   4.44002   4.48483   4.49001
 Alpha virt. eigenvalues --    4.55782   4.58647   4.61424   4.68284   4.68693
 Alpha virt. eigenvalues --    4.69183   4.72248   4.77741   4.78487   4.80725
 Alpha virt. eigenvalues --    4.83362   4.84290   4.86489   4.91075   4.94228
 Alpha virt. eigenvalues --    4.94465   5.02266   5.05163   5.05996   5.09846
 Alpha virt. eigenvalues --    5.14383   5.17238   5.21492   5.22984   5.25471
 Alpha virt. eigenvalues --    5.28714   5.32680   5.35743   5.37160   5.44202
 Alpha virt. eigenvalues --    5.44545   5.51349   5.54003   5.60740   5.64495
 Alpha virt. eigenvalues --    5.68540   5.70277   5.84960   5.86141   5.96529
 Alpha virt. eigenvalues --    5.98621   6.04889   6.09182   6.15946   6.23008
 Alpha virt. eigenvalues --    6.25970   6.31940   6.37563   6.50757   6.60365
 Alpha virt. eigenvalues --    6.64537   6.66832   6.70275   6.70553   6.84568
 Alpha virt. eigenvalues --    6.87558   6.89061   6.93027   6.94398   6.99890
 Alpha virt. eigenvalues --    7.09164   7.19850   7.20650   7.22514   7.26830
 Alpha virt. eigenvalues --    7.35236   7.35813   7.42687   7.45984   7.54950
 Alpha virt. eigenvalues --    7.63616   7.66652   7.67117   7.74744   7.82253
 Alpha virt. eigenvalues --    7.90529   7.92515   8.00570   8.28167   8.54554
 Alpha virt. eigenvalues --   14.97493  15.99887  17.24630  18.20686  19.79781
          Condensed to atoms (all electrons):
               1          2          3          4          5          6
     1  C    4.819462   0.169450   0.404720   0.010510   0.002126   0.068979
     2  O    0.169450   8.218606  -0.152933   0.193838  -0.023157  -0.036624
     3  O    0.404720  -0.152933   8.485789   0.016988  -0.069396   0.001894
     4  H    0.010510   0.193838   0.016988   0.539140   0.014030   0.012721
     5  C    0.002126  -0.023157  -0.069396   0.014030   5.373726  -0.069978
     6  N    0.068979  -0.036624   0.001894   0.012721  -0.069978   7.014441
     7  H    0.013405   0.004819   0.000015  -0.005187   0.359254  -0.023492
     8  H    0.013405   0.004819   0.000015  -0.005187   0.359254  -0.023492
     9  H   -0.006184   0.005735   0.001199   0.010284   0.013815   0.303185
    10  H   -0.006184   0.005735   0.001199   0.010284   0.013815   0.303185
               7          8          9         10
     1  C    0.013405   0.013405  -0.006184  -0.006184
     2  O    0.004819   0.004819   0.005735   0.005735
     3  O    0.000015   0.000015   0.001199   0.001199
     4  H   -0.005187  -0.005187   0.010284   0.010284
     5  C    0.359254   0.359254   0.013815   0.013815
     6  N   -0.023492  -0.023492   0.303185   0.303185
     7  H    0.304262   0.017436  -0.002619   0.000037
     8  H    0.017436   0.304262   0.000037  -0.002619
     9  H   -0.002619   0.000037   0.614716  -0.053700
    10  H    0.000037  -0.002619  -0.053700   0.614716
 Mulliken charges:
               1
     1  C    0.510311
     2  O   -0.390290
     3  O   -0.689490
     4  H    0.202578
     5  C    0.026509
     6  N   -0.550820
     7  H    0.332070
     8  H    0.332070
     9  H    0.113531
    10  H    0.113531
 Sum of Mulliken charges =  -0.00000
 Mulliken charges with hydrogens summed into heavy atoms:
               1
     1  C    0.510311
     2  O   -0.187711
     3  O   -0.689490
     5  C    0.690649
     6  N   -0.323759
 Electronic spatial extent (au):  <R**2>=            416.4053
 Charge=              0.0000 electrons
 Dipole moment (field-independent basis, Debye):
    X=             -0.9879    Y=             -4.5621    Z=              0.0000  Tot=              4.6679
 Quadrupole moment (field-independent basis, Debye-Ang):
   XX=            -29.8887   YY=            -37.5944   ZZ=            -26.9290
   XY=              3.1089   XZ=              0.0000   YZ=             -0.0000
 Traceless Quadrupole moment (field-independent basis, Debye-Ang):
   XX=              1.5821   YY=             -6.1237   ZZ=              4.5417
   XY=              3.1089   XZ=              0.0000   YZ=             -0.0000
 Octapole moment (field-independent basis, Debye-Ang**2):
  XXX=             -3.4338  YYY=             -6.5231  ZZZ=              0.0000  XYY=            -13.0447
  XXY=             -5.3239  XXZ=              0.0000  XZZ=             -0.5594  YZZ=             -3.4344
  YYZ=              0.0000  XYZ=             -0.0000
 Hexadecapole moment (field-independent basis, Debye-Ang**3):
 XXXX=           -140.4982 YYYY=           -362.5443 ZZZZ=            -34.0029 XXXY=             14.9309
 XXXZ=              0.0000 YYYX=             23.9588 YYYZ=             -0.0000 ZZZX=              0.0000
 ZZZY=              0.0000 XXYY=            -83.2733 XXZZ=            -28.4495 YYZZ=            -51.3241
 XXYZ=             -0.0000 YYXZ=             -0.0000 ZZXY=              4.3407
 N-N= 1.800741256900D+02 E-N=-1.026208579813D+03  KE= 2.825317002187D+02
 Symmetry A'   KE= 2.697432724421D+02
 Symmetry A"   KE= 1.278842777661D+01
 Leave Link  601 at Tue Jan 19 07:22:46 2021, MaxMem= 13421772800 cpu:              21.7 elap:               1.4
 (Enter /home/share/software/programs/Gaussian/g16/l9999.exe)
 Unable to Open any file for archive entry.
 1\1\GINC-CU39\SP\RCCSD(T)-FC\Aug-CC-pVTZ\C2H5N1O2\ROOT\19-Jan-2021\0\\
 #p ccsd(t) aug-cc-pvtz\\VII_SP\\0,1\C\O,1,1.3457355\O,1,1.19814681,2,1
 21.21259871\H,2,0.96472033,1,108.75235793,3,180.,0\C,1,1.52715094,3,12
 2.19981511,2,180.,0\N,5,1.44047578,1,118.81834226,3,180.,0\H,5,1.08922
 214,1,105.99599411,3,56.33573548,0\H,5,1.08922214,1,105.99599411,3,-56
 .33573548,0\H,6,1.0056583,5,116.68391241,1,-68.87806903,0\H,6,1.005658
 3,5,116.68391241,1,68.87806903,0\\Version=ES64L-G16RevC.01\State=1-A'\
 HF=-282.940788\MP2=-283.9720207\MP3=-283.9818675\MP4D=-284.002676\MP4D
 Q=-283.9794964\MP4SDQ=-283.9909963\CCSD=-283.9878783\CCSD(T)=-284.0331
 483\RMSD=2.817e-09\PG=CS [SG(C2H1N1O2),X(H4)]\\@
 The archive entry for this job was punched.


 IT IS BETTER TO THINK YOU ARE HALF DRY THAN TO KNOW YOU
 ARE ALL WET.  -- SNOOPY
 Job cpu time:       2 days  6 hours 26 minutes 16.5 seconds.
 Elapsed time:       0 days  0 hours 51 minutes 29.7 seconds.
 File lengths (MBytes):  RWF=  13564 Int=      0 D2E=      0 Chk=     10 Scr=      2
 Normal termination of Gaussian 16 at Tue Jan 19 07:22:48 2021.
